    3    3    1    2
  0.1010627E+03  0.3164379E-09  0.3164379E-09  0.3496268E-08  0.5000000E-15
  1.000000000000000E-004
  CAR 
 MoS2 band (SOC OFF)                     
     24    240    128
 
  0.0000000E+00  0.0000000E+00  0.0000000E+00  0.4166667E-02
    1      -38.797993    -38.797993   1.000000   1.000000
    2      -38.576807    -38.576807   1.000000   1.000000
    3      -38.576799    -38.576799   1.000000   1.000000
    4      -17.929083    -17.929083   1.000000   1.000000
    5      -16.600088    -16.600088   1.000000   1.000000
    6       -9.447407     -9.447407   1.000000   1.000000
    7       -6.380474     -6.380474   1.000000   1.000000
    8       -6.380466     -6.380466   1.000000   1.000000
    9       -5.579859     -5.579859   1.000000   1.000000
   10       -5.243689     -5.243689   1.000000   1.000000
   11       -5.243630     -5.243630   1.000000   1.000000
   12       -3.822543     -3.822543   1.000000   1.000000
   13       -0.934499     -0.934499   0.000000   0.000000
   14       -0.934445     -0.934445   0.000000   0.000000
   15       -0.700883     -0.700883   0.000000   0.000000
   16       -0.700858     -0.700858   0.000000   0.000000
   17        1.616373      1.616052   0.000000   0.000000
   18        1.753294      1.752829   0.000000   0.000000
   19        2.059106      2.059594   0.000000   0.000000
   20        2.302701      2.303166   0.000000   0.000000
   21        2.526260      2.525747   0.000000   0.000000
   22        2.822975      2.822974   0.000000   0.000000
   23        3.049513      3.049213   0.000000   0.000000
   24        3.534360      3.534083   0.000000   0.000000
   25        4.125557      4.125371   0.000000   0.000000
   26        4.705048      4.704888   0.000000   0.000000
   27        5.407548      5.407547   0.000000   0.000000
   28        5.512578      5.512539   0.000000   0.000000
   29        6.154010      6.153986   0.000000   0.000000
   30        7.180784      7.180692   0.000000   0.000000
   31        7.264467      7.264467   0.000000   0.000000
   32        7.264481      7.264481   0.000000   0.000000
   33        7.798152      7.797947   0.000000   0.000000
   34        9.098385      9.098363   0.000000   0.000000
   35        9.133977      9.133783   0.000000   0.000000
   36        9.312062      9.312062   0.000000   0.000000
   37        9.312099      9.312099   0.000000   0.000000
   38       10.117876     10.117788   0.000000   0.000000
   39       11.347657     11.347555   0.000000   0.000000
   40       11.992400     11.992323   0.000000   0.000000
   41       12.669765     12.669761   0.000000   0.000000
   42       12.786243     12.786243   0.000000   0.000000
   43       12.786277     12.786277   0.000000   0.000000
   44       12.961702     12.961702   0.000000   0.000000
   45       12.961720     12.961720   0.000000   0.000000
   46       13.352027     13.352027   0.000000   0.000000
   47       13.843807     13.843707   0.000000   0.000000
   48       13.930142     13.930040   0.000000   0.000000
   49       15.562056     15.561998   0.000000   0.000000
   50       16.145751     16.145721   0.000000   0.000000
   51       16.658610     16.658462   0.000000   0.000000
   52       17.208580     17.208529   0.000000   0.000000
   53       19.308704     19.308699   0.000000   0.000000
   54       19.308731     19.308726   0.000000   0.000000
   55       19.466625     19.466510   0.000000   0.000000
   56       19.532992     19.532901   0.000000   0.000000
   57       20.793140     20.793072   0.000000   0.000000
   58       20.794168     20.794100   0.000000   0.000000
   59       21.243154     21.243006   0.000000   0.000000
   60       21.305761     21.305618   0.000000   0.000000
   61       21.391602     21.391416   0.000000   0.000000
   62       21.392942     21.392756   0.000000   0.000000
   63       21.549566     21.549279   0.000000   0.000000
   64       21.554878     21.554623   0.000000   0.000000
   65       21.645245     21.644963   0.000000   0.000000
   66       21.899161     21.898551   0.000000   0.000000
   67       22.022425     22.022455   0.000000   0.000000
   68       22.023765     22.023907   0.000000   0.000000
   69       22.057605     22.057991   0.000000   0.000000
   70       22.075873     22.076336   0.000000   0.000000
   71       22.082102     22.082367   0.000000   0.000000
   72       22.098922     22.099232   0.000000   0.000000
   73       22.220503     22.220386   0.000000   0.000000
   74       22.250020     22.249706   0.000000   0.000000
   75       22.250064     22.249980   0.000000   0.000000
   76       22.259249     22.258879   0.000000   0.000000
   77       22.259359     22.259424   0.000000   0.000000
   78       22.268238     22.268503   0.000000   0.000000
   79       22.303013     22.303234   0.000000   0.000000
   80       22.334517     22.334096   0.000000   0.000000
   81       22.356041     22.356705   0.000000   0.000000
   82       22.550156     22.549557   0.000000   0.000000
   83       22.554570     22.553982   0.000000   0.000000
   84       22.577646     22.577046   0.000000   0.000000
   85       22.728998     22.728901   0.000000   0.000000
   86       22.751684     22.751537   0.000000   0.000000
   87       22.813314     22.813050   0.000000   0.000000
   88       22.832095     22.832071   0.000000   0.000000
   89       22.840794     22.840491   0.000000   0.000000
   90       22.843272     22.843242   0.000000   0.000000
   91       22.926334     22.926048   0.000000   0.000000
   92       22.978301     22.977971   0.000000   0.000000
   93       23.009633     23.009348   0.000000   0.000000
   94       23.137906     23.137635   0.000000   0.000000
   95       23.380224     23.380066   0.000000   0.000000
   96       23.387048     23.386845   0.000000   0.000000
   97       23.417547     23.417345   0.000000   0.000000
   98       23.546790     23.546545   0.000000   0.000000
   99       23.729062     23.729064   0.000000   0.000000
  100       23.739195     23.738909   0.000000   0.000000
  101       23.752211     23.751922   0.000000   0.000000
  102       23.752698     23.752633   0.000000   0.000000
  103       23.862305     23.862215   0.000000   0.000000
  104       24.023993     24.023896   0.000000   0.000000
  105       24.051121     24.050965   0.000000   0.000000
  106       24.243617     24.243451   0.000000   0.000000
  107       24.422981     24.422909   0.000000   0.000000
  108       24.482443     24.482398   0.000000   0.000000
  109       24.497078     24.496976   0.000000   0.000000
  110       24.638318     24.638228   0.000000   0.000000
  111       24.913233     24.913017   0.000000   0.000000
  112       24.926336     24.926055   0.000000   0.000000
  113       24.949254     24.949192   0.000000   0.000000
  114       24.973396     24.973381   0.000000   0.000000
  115       25.103644     25.103664   0.000000   0.000000
  116       25.318938     25.318715   0.000000   0.000000
  117       25.372982     25.372986   0.000000   0.000000
  118       25.397627     25.397614   0.000000   0.000000
  119       25.659835     25.659808   0.000000   0.000000
  120       25.799715     25.799620   0.000000   0.000000
  121       25.813596     25.813500   0.000000   0.000000
  122       26.030930     26.030708   0.000000   0.000000
  123       26.179611     26.180138   0.000000   0.000000
  124       26.324223     26.324819   0.000000   0.000000
  125       26.327584     26.331333   0.000000   0.000000
  126       26.344311     26.361657   0.000000   0.000000
  127       26.469776     26.455456   0.000000   0.000000
  128       26.509001     26.504151   0.000000   0.000000
 
  0.4219405E-02  0.4219405E-02  0.0000000E+00  0.4166667E-02
    1      -38.797952    -38.797952   1.000000   1.000000
    2      -38.577020    -38.577020   1.000000   1.000000
    3      -38.576847    -38.576847   1.000000   1.000000
    4      -17.928261    -17.928261   1.000000   1.000000
    5      -16.599750    -16.599750   1.000000   1.000000
    6       -9.446456     -9.446456   1.000000   1.000000
    7       -6.382367     -6.382367   1.000000   1.000000
    8       -6.379608     -6.379608   1.000000   1.000000
    9       -5.587556     -5.587556   1.000000   1.000000
   10       -5.245012     -5.245012   1.000000   1.000000
   11       -5.237154     -5.237154   1.000000   1.000000
   12       -3.822839     -3.822839   1.000000   1.000000
   13       -0.935869     -0.935869   0.000000   0.000000
   14       -0.933005     -0.933005   0.000000   0.000000
   15       -0.703547     -0.703547   0.000000   0.000000
   16       -0.701825     -0.701825   0.000000   0.000000
   17        1.617948      1.617627   0.000000   0.000000
   18        1.754365      1.753901   0.000000   0.000000
   19        2.060224      2.060712   0.000000   0.000000
   20        2.303767      2.304233   0.000000   0.000000
   21        2.528103      2.527590   0.000000   0.000000
   22        2.825889      2.825889   0.000000   0.000000
   23        3.050570      3.050270   0.000000   0.000000
   24        3.535534      3.535257   0.000000   0.000000
   25        4.126596      4.126410   0.000000   0.000000
   26        4.706108      4.705948   0.000000   0.000000
   27        5.411338      5.411337   0.000000   0.000000
   28        5.513859      5.513820   0.000000   0.000000
   29        6.154865      6.154841   0.000000   0.000000
   30        7.181749      7.181657   0.000000   0.000000
   31        7.260575      7.260575   0.000000   0.000000
   32        7.267130      7.267130   0.000000   0.000000
   33        7.800616      7.800411   0.000000   0.000000
   34        9.099197      9.099175   0.000000   0.000000
   35        9.134342      9.134150   0.000000   0.000000
   36        9.304646      9.304645   0.000000   0.000000
   37        9.312461      9.312461   0.000000   0.000000
   38       10.117847     10.117760   0.000000   0.000000
   39       11.348374     11.348272   0.000000   0.000000
   40       11.992798     11.992720   0.000000   0.000000
   41       12.676037     12.676034   0.000000   0.000000
   42       12.781634     12.781634   0.000000   0.000000
   43       12.787712     12.787712   0.000000   0.000000
   44       12.958402     12.958402   0.000000   0.000000
   45       12.961243     12.961242   0.000000   0.000000
   46       13.352027     13.352028   0.000000   0.000000
   47       13.846152     13.846052   0.000000   0.000000
   48       13.932469     13.932367   0.000000   0.000000
   49       15.564240     15.564182   0.000000   0.000000
   50       16.154759     16.154729   0.000000   0.000000
   51       16.660412     16.660264   0.000000   0.000000
   52       17.208583     17.208531   0.000000   0.000000
   53       19.284091     19.284075   0.000000   0.000000
   54       19.311584     19.311579   0.000000   0.000000
   55       19.487951     19.487847   0.000000   0.000000
   56       19.533835     19.533744   0.000000   0.000000
   57       20.705225     20.705145   0.000000   0.000000
   58       20.774708     20.774635   0.000000   0.000000
   59       21.172077     21.171896   0.000000   0.000000
   60       21.309471     21.309329   0.000000   0.000000
   61       21.371672     21.371462   0.000000   0.000000
   62       21.478606     21.478417   0.000000   0.000000
   63       21.480603     21.480290   0.000000   0.000000
   64       21.572514     21.572252   0.000000   0.000000
   65       21.642456     21.642121   0.000000   0.000000
   66       21.800616     21.801117   0.000000   0.000000
   67       21.852401     21.852724   0.000000   0.000000
   68       21.950032     21.949759   0.000000   0.000000
   69       22.026965     22.026983   0.000000   0.000000
   70       22.042533     22.042588   0.000000   0.000000
   71       22.059774     22.059787   0.000000   0.000000
   72       22.078469     22.078856   0.000000   0.000000
   73       22.141817     22.141210   0.000000   0.000000
   74       22.207829     22.207429   0.000000   0.000000
   75       22.270885     22.271041   0.000000   0.000000
   76       22.285169     22.285347   0.000000   0.000000
   77       22.290634     22.290695   0.000000   0.000000
   78       22.333221     22.333369   0.000000   0.000000
   79       22.356405     22.356149   0.000000   0.000000
   80       22.472910     22.472576   0.000000   0.000000
   81       22.515979     22.515963   0.000000   0.000000
   82       22.530718     22.531065   0.000000   0.000000
   83       22.547610     22.547294   0.000000   0.000000
   84       22.637685     22.637460   0.000000   0.000000
   85       22.640376     22.640098   0.000000   0.000000
   86       22.707207     22.706940   0.000000   0.000000
   87       22.736548     22.736187   0.000000   0.000000
   88       22.760517     22.760419   0.000000   0.000000
   89       22.884173     22.883953   0.000000   0.000000
   90       22.946007     22.945709   0.000000   0.000000
   91       22.968033     22.967798   0.000000   0.000000
   92       22.986424     22.986220   0.000000   0.000000
   93       23.151711     23.151398   0.000000   0.000000
   94       23.194005     23.193857   0.000000   0.000000
   95       23.277627     23.277344   0.000000   0.000000
   96       23.352087     23.351833   0.000000   0.000000
   97       23.478554     23.478359   0.000000   0.000000
   98       23.561426     23.561228   0.000000   0.000000
   99       23.584547     23.584469   0.000000   0.000000
  100       23.674671     23.674644   0.000000   0.000000
  101       23.786549     23.786301   0.000000   0.000000
  102       23.868516     23.868202   0.000000   0.000000
  103       23.954778     23.954671   0.000000   0.000000
  104       23.966242     23.966166   0.000000   0.000000
  105       24.128645     24.128525   0.000000   0.000000
  106       24.277278     24.277219   0.000000   0.000000
  107       24.362435     24.362295   0.000000   0.000000
  108       24.451402     24.451262   0.000000   0.000000
  109       24.526988     24.526889   0.000000   0.000000
  110       24.660988     24.660892   0.000000   0.000000
  111       24.815715     24.815711   0.000000   0.000000
  112       24.916294     24.916235   0.000000   0.000000
  113       24.953677     24.953470   0.000000   0.000000
  114       24.995998     24.995794   0.000000   0.000000
  115       25.220767     25.220767   0.000000   0.000000
  116       25.310297     25.310287   0.000000   0.000000
  117       25.334535     25.334313   0.000000   0.000000
  118       25.441772     25.441761   0.000000   0.000000
  119       25.714400     25.714312   0.000000   0.000000
  120       25.758135     25.758105   0.000000   0.000000
  121       25.780833     25.780748   0.000000   0.000000
  122       26.054417     26.054310   0.000000   0.000000
  123       26.180116     26.179968   0.000000   0.000000
  124       26.243968     26.244043   0.000000   0.000000
  125       26.335161     26.336448   0.000000   0.000000
  126       26.366504     26.362062   0.000000   0.000000
  127       26.441892     26.433809   0.000000   0.000000
  128       26.495095     26.494332   0.000000   0.000000
 
  0.8438810E-02  0.8438810E-02  0.0000000E+00  0.4166667E-02
    1      -38.797827    -38.797827   1.000000   1.000000
    2      -38.577659    -38.577659   1.000000   1.000000
    3      -38.576991    -38.576991   1.000000   1.000000
    4      -17.925791    -17.925791   1.000000   1.000000
    5      -16.598736    -16.598736   1.000000   1.000000
    6       -9.443604     -9.443604   1.000000   1.000000
    7       -6.388055     -6.388055   1.000000   1.000000
    8       -6.377009     -6.377009   1.000000   1.000000
    9       -5.609039     -5.609039   1.000000   1.000000
   10       -5.249160     -5.249160   1.000000   1.000000
   11       -5.219153     -5.219153   1.000000   1.000000
   12       -3.823735     -3.823735   1.000000   1.000000
   13       -0.940104     -0.940104   0.000000   0.000000
   14       -0.928526     -0.928526   0.000000   0.000000
   15       -0.711483     -0.711483   0.000000   0.000000
   16       -0.704721     -0.704721   0.000000   0.000000
   17        1.622645      1.622322   0.000000   0.000000
   18        1.757579      1.757115   0.000000   0.000000
   19        2.063576      2.064064   0.000000   0.000000
   20        2.306967      2.307432   0.000000   0.000000
   21        2.533569      2.533054   0.000000   0.000000
   22        2.834671      2.834674   0.000000   0.000000
   23        3.053742      3.053441   0.000000   0.000000
   24        3.539059      3.538782   0.000000   0.000000
   25        4.129713      4.129527   0.000000   0.000000
   26        4.709287      4.709127   0.000000   0.000000
   27        5.422586      5.422584   0.000000   0.000000
   28        5.517792      5.517754   0.000000   0.000000
   29        6.157422      6.157398   0.000000   0.000000
   30        7.184642      7.184550   0.000000   0.000000
   31        7.249117      7.249115   0.000000   0.000000
   32        7.275117      7.275117   0.000000   0.000000
   33        7.807819      7.807615   0.000000   0.000000
   34        9.101572      9.101550   0.000000   0.000000
   35        9.135051      9.134861   0.000000   0.000000
   36        9.283111      9.283107   0.000000   0.000000
   37        9.313563      9.313563   0.000000   0.000000
   38       10.117773     10.117685   0.000000   0.000000
   39       11.350507     11.350405   0.000000   0.000000
   40       11.993976     11.993899   0.000000   0.000000
   41       12.687647     12.687646   0.000000   0.000000
   42       12.773684     12.773681   0.000000   0.000000
   43       12.793461     12.793461   0.000000   0.000000
   44       12.948429     12.948429   0.000000   0.000000
   45       12.959954     12.959953   0.000000   0.000000
   46       13.352032     13.352032   0.000000   0.000000
   47       13.853070     13.852970   0.000000   0.000000
   48       13.939441     13.939339   0.000000   0.000000
   49       15.570798     15.570741   0.000000   0.000000
   50       16.181396     16.181364   0.000000   0.000000
   51       16.665926     16.665780   0.000000   0.000000
   52       17.208580     17.208529   0.000000   0.000000
   53       19.230356     19.230328   0.000000   0.000000
   54       19.320075     19.320069   0.000000   0.000000
   55       19.531737     19.531643   0.000000   0.000000
   56       19.536297     19.536207   0.000000   0.000000
   57       20.523786     20.523691   0.000000   0.000000
   58       20.715738     20.715646   0.000000   0.000000
   59       20.982216     20.982010   0.000000   0.000000
   60       21.296473     21.296169   0.000000   0.000000
   61       21.343737     21.343376   0.000000   0.000000
   62       21.415193     21.415002   0.000000   0.000000
   63       21.502982     21.502928   0.000000   0.000000
   64       21.569337     21.569727   0.000000   0.000000
   65       21.596830     21.597023   0.000000   0.000000
   66       21.629057     21.628748   0.000000   0.000000
   67       21.699850     21.699678   0.000000   0.000000
   68       21.783717     21.784128   0.000000   0.000000
   69       21.807556     21.807671   0.000000   0.000000
   70       22.016739     22.016284   0.000000   0.000000
   71       22.042796     22.042275   0.000000   0.000000
   72       22.071794     22.071876   0.000000   0.000000
   73       22.091562     22.092003   0.000000   0.000000
   74       22.130403     22.129886   0.000000   0.000000
   75       22.270050     22.270183   0.000000   0.000000
   76       22.305657     22.305743   0.000000   0.000000
   77       22.306787     22.306331   0.000000   0.000000
   78       22.405779     22.405479   0.000000   0.000000
   79       22.409774     22.409459   0.000000   0.000000
   80       22.515601     22.515295   0.000000   0.000000
   81       22.518040     22.517863   0.000000   0.000000
   82       22.575948     22.576338   0.000000   0.000000
   83       22.605065     22.604892   0.000000   0.000000
   84       22.703447     22.703488   0.000000   0.000000
   85       22.733231     22.733125   0.000000   0.000000
   86       22.756995     22.757176   0.000000   0.000000
   87       22.769329     22.769147   0.000000   0.000000
   88       22.797505     22.797489   0.000000   0.000000
   89       22.955432     22.955131   0.000000   0.000000
   90       22.957344     22.957218   0.000000   0.000000
   91       22.971265     22.971034   0.000000   0.000000
   92       23.067700     23.067261   0.000000   0.000000
   93       23.141869     23.141560   0.000000   0.000000
   94       23.299135     23.299021   0.000000   0.000000
   95       23.303838     23.303669   0.000000   0.000000
   96       23.451346     23.451134   0.000000   0.000000
   97       23.453114     23.452872   0.000000   0.000000
   98       23.488679     23.488413   0.000000   0.000000
   99       23.523110     23.523027   0.000000   0.000000
  100       23.628881     23.628641   0.000000   0.000000
  101       23.926691     23.926534   0.000000   0.000000
  102       23.932132     23.932051   0.000000   0.000000
  103       23.981474     23.981368   0.000000   0.000000
  104       24.024589     24.024318   0.000000   0.000000
  105       24.093124     24.093032   0.000000   0.000000
  106       24.317279     24.317213   0.000000   0.000000
  107       24.343580     24.343341   0.000000   0.000000
  108       24.536619     24.536505   0.000000   0.000000
  109       24.559460     24.559343   0.000000   0.000000
  110       24.620219     24.620198   0.000000   0.000000
  111       24.712747     24.712635   0.000000   0.000000
  112       24.810677     24.810625   0.000000   0.000000
  113       25.034012     25.033800   0.000000   0.000000
  114       25.124169     25.124078   0.000000   0.000000
  115       25.245494     25.245459   0.000000   0.000000
  116       25.284583     25.284570   0.000000   0.000000
  117       25.347070     25.346900   0.000000   0.000000
  118       25.593390     25.593367   0.000000   0.000000
  119       25.624357     25.624204   0.000000   0.000000
  120       25.691349     25.691284   0.000000   0.000000
  121       25.935719     25.935695   0.000000   0.000000
  122       26.034038     26.034015   0.000000   0.000000
  123       26.126008     26.125590   0.000000   0.000000
  124       26.196974     26.196690   0.000000   0.000000
  125       26.240142     26.239788   0.000000   0.000000
  126       26.365199     26.363123   0.000000   0.000000
  127       26.479855     26.476410   0.000000   0.000000
  128       26.685432     26.682160   0.000000   0.000000
 
  0.1265822E-01  0.1265822E-01  0.0000000E+00  0.4166667E-02
    1      -38.797620    -38.797620   1.000000   1.000000
    2      -38.578721    -38.578721   1.000000   1.000000
    3      -38.577232    -38.577232   1.000000   1.000000
    4      -17.921677    -17.921677   1.000000   1.000000
    5      -16.597048    -16.597048   1.000000   1.000000
    6       -9.438859     -9.438859   1.000000   1.000000
    7       -6.397493     -6.397493   1.000000   1.000000
    8       -6.372683     -6.372683   1.000000   1.000000
    9       -5.640844     -5.640844   1.000000   1.000000
   10       -5.256085     -5.256085   1.000000   1.000000
   11       -5.193140     -5.193140   1.000000   1.000000
   12       -3.825246     -3.825246   1.000000   1.000000
   13       -0.947063     -0.947063   0.000000   0.000000
   14       -0.921079     -0.921079   0.000000   0.000000
   15       -0.724542     -0.724542   0.000000   0.000000
   16       -0.709538     -0.709538   0.000000   0.000000
   17        1.630385      1.630061   0.000000   0.000000
   18        1.762934      1.762469   0.000000   0.000000
   19        2.069153      2.069642   0.000000   0.000000
   20        2.312298      2.312763   0.000000   0.000000
   21        2.542479      2.541962   0.000000   0.000000
   22        2.849435      2.849440   0.000000   0.000000
   23        3.059026      3.058726   0.000000   0.000000
   24        3.544943      3.544667   0.000000   0.000000
   25        4.134908      4.134722   0.000000   0.000000
   26        4.714582      4.714422   0.000000   0.000000
   27        5.440835      5.440832   0.000000   0.000000
   28        5.524722      5.524684   0.000000   0.000000
   29        6.161660      6.161635   0.000000   0.000000
   30        7.189456      7.189364   0.000000   0.000000
   31        7.230754      7.230751   0.000000   0.000000
   32        7.288369      7.288369   0.000000   0.000000
   33        7.819272      7.819070   0.000000   0.000000
   34        9.105344      9.105322   0.000000   0.000000
   35        9.134280      9.134100   0.000000   0.000000
   36        9.250145      9.250132   0.000000   0.000000
   37        9.315409      9.315409   0.000000   0.000000
   38       10.117683     10.117595   0.000000   0.000000
   39       11.354005     11.353903   0.000000   0.000000
   40       11.995891     11.995813   0.000000   0.000000
   41       12.678672     12.678672   0.000000   0.000000
   42       12.779014     12.779011   0.000000   0.000000
   43       12.813050     12.813048   0.000000   0.000000
   44       12.931733     12.931733   0.000000   0.000000
   45       12.958013     12.958012   0.000000   0.000000
   46       13.352041     13.352041   0.000000   0.000000
   47       13.864265     13.864166   0.000000   0.000000
   48       13.951024     13.950922   0.000000   0.000000
   49       15.581762     15.581706   0.000000   0.000000
   50       16.224487     16.224452   0.000000   0.000000
   51       16.675532     16.675390   0.000000   0.000000
   52       17.208544     17.208493   0.000000   0.000000
   53       19.166013     19.165979   0.000000   0.000000
   54       19.333666     19.333660   0.000000   0.000000
   55       19.540123     19.540034   0.000000   0.000000
   56       19.579443     19.579352   0.000000   0.000000
   57       20.317213     20.317108   0.000000   0.000000
   58       20.610727     20.610597   0.000000   0.000000
   59       20.779945     20.779719   0.000000   0.000000
   60       21.159372     21.158969   0.000000   0.000000
   61       21.236192     21.235791   0.000000   0.000000
   62       21.306376     21.306882   0.000000   0.000000
   63       21.370108     21.370476   0.000000   0.000000
   64       21.442819     21.442617   0.000000   0.000000
   65       21.507425     21.507362   0.000000   0.000000
   66       21.532752     21.532523   0.000000   0.000000
   67       21.564892     21.565337   0.000000   0.000000
   68       21.705508     21.705077   0.000000   0.000000
   69       21.823270     21.822777   0.000000   0.000000
   70       21.831481     21.831447   0.000000   0.000000
   71       21.924188     21.923840   0.000000   0.000000
   72       22.064590     22.064777   0.000000   0.000000
   73       22.099262     22.099807   0.000000   0.000000
   74       22.176601     22.176250   0.000000   0.000000
   75       22.202305     22.201964   0.000000   0.000000
   76       22.247823     22.247546   0.000000   0.000000
   77       22.263603     22.263367   0.000000   0.000000
   78       22.294572     22.294720   0.000000   0.000000
   79       22.428675     22.428189   0.000000   0.000000
   80       22.468814     22.468899   0.000000   0.000000
   81       22.563528     22.563067   0.000000   0.000000
   82       22.640909     22.640603   0.000000   0.000000
   83       22.753380     22.753286   0.000000   0.000000
   84       22.757705     22.757472   0.000000   0.000000
   85       22.813946     22.814113   0.000000   0.000000
   86       22.865767     22.865942   0.000000   0.000000
   87       22.890586     22.890236   0.000000   0.000000
   88       22.926797     22.926918   0.000000   0.000000
   89       22.963714     22.963494   0.000000   0.000000
   90       23.011681     23.011413   0.000000   0.000000
   91       23.020103     23.019976   0.000000   0.000000
   92       23.071050     23.071392   0.000000   0.000000
   93       23.140843     23.140845   0.000000   0.000000
   94       23.324182     23.323672   0.000000   0.000000
   95       23.339396     23.339276   0.000000   0.000000
   96       23.436900     23.436703   0.000000   0.000000
   97       23.481516     23.481264   0.000000   0.000000
   98       23.648291     23.648065   0.000000   0.000000
   99       23.658474     23.658148   0.000000   0.000000
  100       23.681673     23.681482   0.000000   0.000000
  101       23.851298     23.851216   0.000000   0.000000
  102       23.963173     23.963042   0.000000   0.000000
  103       23.981385     23.981285   0.000000   0.000000
  104       24.022647     24.022450   0.000000   0.000000
  105       24.169361     24.169202   0.000000   0.000000
  106       24.326681     24.326681   0.000000   0.000000
  107       24.376680     24.376359   0.000000   0.000000
  108       24.547525     24.547405   0.000000   0.000000
  109       24.633197     24.633113   0.000000   0.000000
  110       24.649888     24.649833   0.000000   0.000000
  111       24.757209     24.757123   0.000000   0.000000
  112       24.758232     24.758090   0.000000   0.000000
  113       25.070504     25.070336   0.000000   0.000000
  114       25.157484     25.157405   0.000000   0.000000
  115       25.239650     25.239585   0.000000   0.000000
  116       25.296599     25.296578   0.000000   0.000000
  117       25.348501     25.348420   0.000000   0.000000
  118       25.598342     25.598247   0.000000   0.000000
  119       25.703079     25.702894   0.000000   0.000000
  120       25.735895     25.735762   0.000000   0.000000
  121       25.995959     25.995800   0.000000   0.000000
  122       26.012372     26.012289   0.000000   0.000000
  123       26.107154     26.106906   0.000000   0.000000
  124       26.215287     26.215033   0.000000   0.000000
  125       26.240732     26.240559   0.000000   0.000000