 running on    8 total cores
 distrk:  each k-point on    8 cores,    1 groups
 distr:  one band on    1 cores,    8 groups
 using from now: INCAR     
 vasp.5.4.1 05Feb16 (build Feb 01 2017 11:31:40) complex                        
  
 POSCAR found type information on POSCAR  Mo S 
 POSCAR found :  2 types and       3 ions
 scaLAPACK will be used

 ----------------------------------------------------------------------------- 
|                                                                             |
|           W    W    AA    RRRRR   N    N  II  N    N   GGGG   !!!           |
|           W    W   A  A   R    R  NN   N  II  NN   N  G    G  !!!           |
|           W    W  A    A  R    R  N N  N  II  N N  N  G       !!!           |
|           W WW W  AAAAAA  RRRRR   N  N N  II  N  N N  G  GGG   !            |
|           WW  WW  A    A  R   R   N   NN  II  N   NN  G    G                |
|           W    W  A    A  R    R  N    N  II  N    N   GGGG   !!!           |
|                                                                             |
|      For optimal performance we recommend to set                            |
|        NCORE= 4 - approx SQRT( number of cores)                             |
|      NCORE specifies how many cores store one orbital (NPAR=cpu/NCORE).     |
|      This setting can  greatly improve the performance of VASP for DFT.     |
|      The default, NPAR=number of cores might be grossly inefficient         |
|      on modern multi-core architectures or massively parallel machines.     |
|      Do your own testing !!!!                                               |
|      Unfortunately you need to use the default for GW and RPA calculations. |
|      (for HF NCORE is supported but not extensively tested yet)             |
|                                                                             |
 ----------------------------------------------------------------------------- 

 LDA part: xc-table for Pade appr. of Perdew
 found WAVECAR, reading the header
  number of bands has changed, file:    24 present:   128
  trying to continue reading WAVECAR, but it might fail
  number of k-points has changed, file:    61 present:   240
  trying to continue reading WAVECAR, but it might fail
 WARNING: stress and forces are not correct
 POSCAR, INCAR and KPOINTS ok, starting setup
 FFT: planning ...
 reading WAVECAR
 random initialization beyond band           25
 the WAVECAR file was read successfully
 charge-density read from file: MoS2                                    
 magnetization density read from file 1
 entering main loop
       N       E                     dE             d eps       ncg     rms          rms(c)
DAV:   1    -0.158415895678E+02   -0.15842E+02   -0.11076E+02123840   0.147E+01
DAV:   2    -0.211903077842E+02   -0.53487E+01   -0.48578E+01145016   0.782E+00
DAV:   3    -0.213670446538E+02   -0.17674E+00   -0.17422E+00148600   0.131E+00
DAV:   4    -0.213690857173E+02   -0.20411E-02   -0.20401E-02142632   0.151E-01
DAV:   5    -0.213691336635E+02   -0.47946E-04   -0.47939E-04143768   0.217E-02
DAV:   6    -0.213691357141E+02   -0.20507E-05   -0.20503E-05143176   0.388E-03
DAV:   7    -0.213691358294E+02   -0.11529E-06   -0.11501E-06143256   0.793E-04
DAV:   8    -0.213691358367E+02   -0.72396E-08   -0.69718E-08125704   0.184E-04
   1 F= -.21369136E+02 E0= -.21369136E+02  d E =-.331467E-12  mag=    -0.0000
