 running on    8 total cores
 distrk:  each k-point on    8 cores,    1 groups
 distr:  one band on    1 cores,    8 groups
 using from now: INCAR     
 vasp.5.4.1 05Feb16 (build Feb 01 2017 11:31:40) complex                        
  
 POSCAR found type information on POSCAR  Mo S 
 POSCAR found :  2 types and       3 ions
 scaLAPACK will be used

 ----------------------------------------------------------------------------- 
|                                                                             |
|           W    W    AA    RRRRR   N    N  II  N    N   GGGG   !!!           |
|           W    W   A  A   R    R  NN   N  II  NN   N  G    G  !!!           |
|           W    W  A    A  R    R  N N  N  II  N N  N  G       !!!           |
|           W WW W  AAAAAA  RRRRR   N  N N  II  N  N N  G  GGG   !            |
|           WW  WW  A    A  R   R   N   NN  II  N   NN  G    G                |
|           W    W  A    A  R    R  N    N  II  N    N   GGGG   !!!           |
|                                                                             |
|      For optimal performance we recommend to set                            |
|        NCORE= 4 - approx SQRT( number of cores)                             |
|      NCORE specifies how many cores store one orbital (NPAR=cpu/NCORE).     |
|      This setting can  greatly improve the performance of VASP for DFT.     |
|      The default, NPAR=number of cores might be grossly inefficient         |
|      on modern multi-core architectures or massively parallel machines.     |
|      Do your own testing !!!!                                               |
|      Unfortunately you need to use the default for GW and RPA calculations. |
|      (for HF NCORE is supported but not extensively tested yet)             |
|                                                                             |
 ----------------------------------------------------------------------------- 

 LDA part: xc-table for Pade appr. of Perdew
 found WAVECAR, reading the header
  number of k-points has changed, file:    61 present:   240
  trying to continue reading WAVECAR, but it might fail
 WARNING: stress and forces are not correct
 POSCAR, INCAR and KPOINTS ok, starting setup
 FFT: planning ...
 reading WAVECAR
 the WAVECAR file was read successfully
 charge-density read from file: MoS2                                    
 magnetization density read from file 1
 entering main loop
       N       E                     dE             d eps       ncg     rms          rms(c)
DAV:   1    -0.174093932858E+02   -0.17409E+02   -0.15630E+02 32064   0.766E+01
DAV:   2    -0.212848663473E+02   -0.38755E+01   -0.38505E+01 29576   0.227E+01
DAV:   3    -0.213530602430E+02   -0.68194E-01   -0.68155E-01 31640   0.385E+00
DAV:   4    -0.213546749920E+02   -0.16147E-02   -0.16145E-02 31608   0.507E-01
DAV:   5    -0.213547279523E+02   -0.52960E-04   -0.52960E-04 32544   0.887E-02
DAV:   6    -0.213547284673E+02   -0.51501E-06   -0.51472E-06 32328   0.845E-03
DAV:   7    -0.213547284782E+02   -0.10888E-07   -0.10590E-07 29664   0.113E-03
DAV:   8    -0.213547284783E+02   -0.83674E-10    0.21740E-09 23472   0.136E-04
   1 F= -.21354728E+02 E0= -.21354728E+02  d E =-.251433E-18  mag=    -0.0000
