  150  150    1    2
  0.4150140E+02  0.1595158E-08  0.1595158E-08  0.2824984E-08  0.5000000E-15
  1.000000000000000E-004
  CAR 
 MoSSe-WSSe static SCF calculation       
   1200      8    800
 
  0.0000000E+00  0.0000000E+00  0.0000000E+00  0.2040816E-01
    1      -38.543513    -38.543513   1.000000   1.000000
    2      -38.543513    -38.543513   1.000000   1.000000
    3      -38.543513    -38.543513   1.000000   1.000000
    4      -38.543513    -38.543513   1.000000   1.000000
    5      -38.543505    -38.543506   1.000000   1.000000
    6      -38.543505    -38.543506   1.000000   1.000000
    7      -38.536293    -38.536294   1.000000   1.000000
    8      -38.536293    -38.536294   1.000000   1.000000
    9      -38.536293    -38.536294   1.000000   1.000000
   10      -38.536293    -38.536294   1.000000   1.000000
   11      -38.536286    -38.536287   1.000000   1.000000
   12      -38.536286    -38.536287   1.000000   1.000000
   13      -38.481150    -38.481150   1.000000   1.000000
   14      -38.481150    -38.481150   1.000000   1.000000
   15      -38.481143    -38.481143   1.000000   1.000000
   16      -38.481143    -38.481143   1.000000   1.000000
   17      -38.481143    -38.481143   1.000000   1.000000
   18      -38.481143    -38.481143   1.000000   1.000000
   19      -38.445134    -38.445134   1.000000   1.000000
   20      -38.424127    -38.424127   1.000000   1.000000
   21      -38.424127    -38.424127   1.000000   1.000000
   22      -38.424127    -38.424127   1.000000   1.000000
   23      -38.424127    -38.424127   1.000000   1.000000
   24      -38.424127    -38.424127   1.000000   1.000000
   25      -38.424127    -38.424127   1.000000   1.000000
   26      -38.397126    -38.397127   1.000000   1.000000
   27      -38.397126    -38.397127   1.000000   1.000000
   28      -38.397120    -38.397120   1.000000   1.000000
   29      -38.397120    -38.397120   1.000000   1.000000
   30      -38.397120    -38.397120   1.000000   1.000000
   31      -38.397120    -38.397120   1.000000   1.000000
   32      -38.396497    -38.396497   1.000000   1.000000
   33      -38.396497    -38.396497   1.000000   1.000000
   34      -38.396497    -38.396497   1.000000   1.000000
   35      -38.396497    -38.396497   1.000000   1.000000
   36      -38.396497    -38.396497   1.000000   1.000000
   37      -38.396497    -38.396497   1.000000   1.000000
   38      -38.389941    -38.389942   1.000000   1.000000
   39      -38.389941    -38.389942   1.000000   1.000000
   40      -38.389941    -38.389941   1.000000   1.000000
   41      -38.389941    -38.389941   1.000000   1.000000
   42      -38.389941    -38.389941   1.000000   1.000000
   43      -38.389941    -38.389941   1.000000   1.000000
   44      -38.379386    -38.379386   1.000000   1.000000
   45      -38.379386    -38.379386   1.000000   1.000000
   46      -38.379385    -38.379386   1.000000   1.000000
   47      -38.379385    -38.379386   1.000000   1.000000
   48      -38.379385    -38.379386   1.000000   1.000000
   49      -38.379385    -38.379386   1.000000   1.000000
   50      -38.364776    -38.364776   1.000000   1.000000
   51      -38.364776    -38.364776   1.000000   1.000000
   52      -38.364776    -38.364776   1.000000   1.000000
   53      -38.364776    -38.364776   1.000000   1.000000
   54      -38.364769    -38.364769   1.000000   1.000000
   55      -38.364769    -38.364769   1.000000   1.000000
   56      -38.341969    -38.341969   1.000000   1.000000
   57      -38.341969    -38.341969   1.000000   1.000000
   58      -38.341969    -38.341969   1.000000   1.000000
   59      -38.341969    -38.341969   1.000000   1.000000
   60      -38.341962    -38.341962   1.000000   1.000000
   61      -38.341962    -38.341962   1.000000   1.000000
   62      -38.320569    -38.320569   1.000000   1.000000
   63      -38.320569    -38.320569   1.000000   1.000000
   64      -38.320563    -38.320563   1.000000   1.000000
   65      -38.320563    -38.320563   1.000000   1.000000
   66      -38.320563    -38.320563   1.000000   1.000000
   67      -38.320563    -38.320563   1.000000   1.000000
   68      -38.277950    -38.277951   1.000000   1.000000
   69      -38.277950    -38.277951   1.000000   1.000000
   70      -38.277944    -38.277944   1.000000   1.000000
   71      -38.277944    -38.277944   1.000000   1.000000
   72      -38.277944    -38.277944   1.000000   1.000000
   73      -38.277944    -38.277944   1.000000   1.000000
   74      -38.251426    -38.251426   1.000000   1.000000
   75      -38.251417    -38.251417   1.000000   1.000000
   76      -35.620444    -35.620444   1.000000   1.000000
   77      -35.620444    -35.620444   1.000000   1.000000
   78      -35.620444    -35.620444   1.000000   1.000000
   79      -35.620444    -35.620444   1.000000   1.000000
   80      -35.620437    -35.620437   1.000000   1.000000
   81      -35.620437    -35.620437   1.000000   1.000000
   82      -35.612402    -35.612402   1.000000   1.000000
   83      -35.612402    -35.612402   1.000000   1.000000
   84      -35.612402    -35.612402   1.000000   1.000000
   85      -35.612402    -35.612402   1.000000   1.000000
   86      -35.612395    -35.612395   1.000000   1.000000
   87      -35.612395    -35.612395   1.000000   1.000000
   88      -35.551390    -35.551390   1.000000   1.000000
   89      -35.551390    -35.551390   1.000000   1.000000
   90      -35.551383    -35.551383   1.000000   1.000000
   91      -35.551383    -35.551383   1.000000   1.000000
   92      -35.551383    -35.551383   1.000000   1.000000
   93      -35.551383    -35.551383   1.000000   1.000000
   94      -35.547009    -35.547008   1.000000   1.000000
   95      -35.521653    -35.521653   1.000000   1.000000
   96      -35.521653    -35.521653   1.000000   1.000000
   97      -35.521653    -35.521653   1.000000   1.000000
   98      -35.521653    -35.521653   1.000000   1.000000
   99      -35.521653    -35.521653   1.000000   1.000000
  100      -35.521653    -35.521653   1.000000   1.000000
  101      -35.488287    -35.488287   1.000000   1.000000
  102      -35.488287    -35.488287   1.000000   1.000000
  103      -35.488287    -35.488287   1.000000   1.000000
  104      -35.488287    -35.488287   1.000000   1.000000
  105      -35.488287    -35.488287   1.000000   1.000000
  106      -35.488287    -35.488287   1.000000   1.000000
  107      -35.480369    -35.480369   1.000000   1.000000
  108      -35.480369    -35.480369   1.000000   1.000000
  109      -35.480369    -35.480369   1.000000   1.000000
  110      -35.480369    -35.480369   1.000000   1.000000
  111      -35.480369    -35.480369   1.000000   1.000000
  112      -35.480369    -35.480369   1.000000   1.000000
  113      -35.467629    -35.467629   1.000000   1.000000
  114      -35.467629    -35.467629   1.000000   1.000000
  115      -35.467629    -35.467629   1.000000   1.000000
  116      -35.467629    -35.467629   1.000000   1.000000
  117      -35.467629    -35.467629   1.000000   1.000000
  118      -35.467629    -35.467629   1.000000   1.000000
  119      -35.456431    -35.456431   1.000000   1.000000
  120      -35.456431    -35.456431   1.000000   1.000000
  121      -35.456425    -35.456424   1.000000   1.000000
  122      -35.456425    -35.456424   1.000000   1.000000
  123      -35.456425    -35.456424   1.000000   1.000000
  124      -35.456425    -35.456424   1.000000   1.000000
  125      -35.422543    -35.422543   1.000000   1.000000
  126      -35.422543    -35.422543   1.000000   1.000000
  127      -35.422543    -35.422543   1.000000   1.000000
  128      -35.422543    -35.422543   1.000000   1.000000
  129      -35.422536    -35.422536   1.000000   1.000000
  130      -35.422536    -35.422536   1.000000   1.000000
  131      -35.395799    -35.395799   1.000000   1.000000
  132      -35.395799    -35.395799   1.000000   1.000000
  133      -35.395799    -35.395799   1.000000   1.000000
  134      -35.395799    -35.395799   1.000000   1.000000
  135      -35.395792    -35.395792   1.000000   1.000000
  136      -35.395792    -35.395792   1.000000   1.000000
  137      -35.371780    -35.371779   1.000000   1.000000
  138      -35.371780    -35.371779   1.000000   1.000000
  139      -35.371773    -35.371773   1.000000   1.000000
  140      -35.371773    -35.371773   1.000000   1.000000
  141      -35.371773    -35.371773   1.000000   1.000000
  142      -35.371773    -35.371773   1.000000   1.000000
  143      -35.325555    -35.325554   1.000000   1.000000
  144      -35.325555    -35.325554   1.000000   1.000000
  145      -35.325548    -35.325548   1.000000   1.000000
  146      -35.325548    -35.325548   1.000000   1.000000
  147      -35.325548    -35.325548   1.000000   1.000000
  148      -35.325548    -35.325548   1.000000   1.000000
  149      -35.296771    -35.296771   1.000000   1.000000
  150      -35.296763    -35.296762   1.000000   1.000000
  151      -15.216783    -15.216783   1.000000   1.000000
  152      -14.912539    -14.912540   1.000000   1.000000
  153      -14.586979    -14.586979   1.000000   1.000000
  154      -14.586979    -14.586979   1.000000   1.000000
  155      -14.586977    -14.586977   1.000000   1.000000
  156      -14.586977    -14.586977   1.000000   1.000000
  157      -14.586977    -14.586977   1.000000   1.000000
  158      -14.586977    -14.586977   1.000000   1.000000
  159      -14.336280    -14.336281   1.000000   1.000000
  160      -14.336280    -14.336281   1.000000   1.000000
  161      -14.336279    -14.336279   1.000000   1.000000
  162      -14.336279    -14.336279   1.000000   1.000000
  163      -14.336279    -14.336279   1.000000   1.000000
  164      -14.336279    -14.336279   1.000000   1.000000
  165      -13.740305    -13.740306   1.000000   1.000000
  166      -13.621574    -13.621575   1.000000   1.000000
  167      -13.582478    -13.582478   1.000000   1.000000
  168      -13.582478    -13.582478   1.000000   1.000000
  169      -13.582478    -13.582478   1.000000   1.000000
  170      -13.582478    -13.582478   1.000000   1.000000
  171      -13.582474    -13.582474   1.000000   1.000000
  172      -13.582474    -13.582474   1.000000   1.000000
  173      -13.446785    -13.446786   1.000000   1.000000
  174      -13.446785    -13.446786   1.000000   1.000000
  175      -13.446785    -13.446786   1.000000   1.000000
  176      -13.446785    -13.446786   1.000000   1.000000
  177      -13.446783    -13.446784   1.000000   1.000000
  178      -13.446783    -13.446784   1.000000   1.000000
  179      -13.425648    -13.425649   1.000000   1.000000
  180      -13.425648    -13.425649   1.000000   1.000000
  181      -13.425648    -13.425649   1.000000   1.000000
  182      -13.425648    -13.425649   1.000000   1.000000
  183      -13.425646    -13.425646   1.000000   1.000000
  184      -13.425646    -13.425646   1.000000   1.000000
  185      -13.328743    -13.328743   1.000000   1.000000
  186      -13.328743    -13.328743   1.000000   1.000000
  187      -13.328743    -13.328743   1.000000   1.000000
  188      -13.328743    -13.328743   1.000000   1.000000
  189      -13.328741    -13.328741   1.000000   1.000000
  190      -13.328741    -13.328741   1.000000   1.000000
  191      -13.274646    -13.274647   1.000000   1.000000
  192      -13.274646    -13.274647   1.000000   1.000000
  193      -13.274639    -13.274639   1.000000   1.000000
  194      -13.274639    -13.274639   1.000000   1.000000
  195      -13.274639    -13.274639   1.000000   1.000000
  196      -13.274639    -13.274639   1.000000   1.000000
  197      -13.151581    -13.151581   1.000000   1.000000
  198      -13.151581    -13.151581   1.000000   1.000000
  199      -13.151577    -13.151577   1.000000   1.000000
  200      -13.151577    -13.151577   1.000000   1.000000
  201      -13.151577    -13.151577   1.000000   1.000000
  202      -13.151577    -13.151577   1.000000   1.000000
  203      -12.991317    -12.991318   1.000000   1.000000
  204      -12.991317    -12.991318   1.000000   1.000000
  205      -12.991313    -12.991313   1.000000   1.000000
  206      -12.991313    -12.991313   1.000000   1.000000
  207      -12.991313    -12.991313   1.000000   1.000000
  208      -12.991313    -12.991313   1.000000   1.000000
  209      -12.875232    -12.875233   1.000000   1.000000
  210      -12.875232    -12.875233   1.000000   1.000000
  211      -12.875232    -12.875233   1.000000   1.000000
  212      -12.875232    -12.875233   1.000000   1.000000
  213      -12.875225    -12.875225   1.000000   1.000000
  214      -12.875225    -12.875225   1.000000   1.000000
  215      -12.873803    -12.873803   1.000000   1.000000
  216      -12.873803    -12.873803   1.000000   1.000000
  217      -12.873799    -12.873799   1.000000   1.000000
  218      -12.873799    -12.873799   1.000000   1.000000
  219      -12.873799    -12.873799   1.000000   1.000000
  220      -12.873799    -12.873799   1.000000   1.000000
  221      -12.781799    -12.781799   1.000000   1.000000
  222      -12.781799    -12.781799   1.000000   1.000000
  223      -12.781795    -12.781795   1.000000   1.000000
  224      -12.781795    -12.781795   1.000000   1.000000
  225      -12.781795    -12.781795   1.000000   1.000000
  226      -12.781795    -12.781795   1.000000   1.000000
  227      -12.754359    -12.754359   1.000000   1.000000
  228      -12.754359    -12.754359   1.000000   1.000000
  229      -12.754359    -12.754359   1.000000   1.000000
  230      -12.754359    -12.754359   1.000000   1.000000
  231      -12.754353    -12.754353   1.000000   1.000000
  232      -12.754353    -12.754353   1.000000   1.000000
  233      -12.723313    -12.723313   1.000000   1.000000
  234      -12.723313    -12.723313   1.000000   1.000000
  235      -12.723312    -12.723313   1.000000   1.000000
  236      -12.723312    -12.723313   1.000000   1.000000
  237      -12.723312    -12.723313   1.000000   1.000000
  238      -12.723312    -12.723313   1.000000   1.000000
  239      -12.638375    -12.638375   1.000000   1.000000
  240      -12.638375    -12.638375   1.000000   1.000000
  241      -12.638375    -12.638375   1.000000   1.000000
  242      -12.638375    -12.638375   1.000000   1.000000
  243      -12.638371    -12.638371   1.000000   1.000000
  244      -12.638371    -12.638371   1.000000   1.000000
  245      -12.513768    -12.513768   1.000000   1.000000
  246      -12.513768    -12.513768   1.000000   1.000000
  247      -12.513768    -12.513768   1.000000   1.000000
  248      -12.513768    -12.513768   1.000000   1.000000
  249      -12.513766    -12.513766   1.000000   1.000000
  250      -12.513766    -12.513766   1.000000   1.000000
  251       -6.703166     -6.703165   1.000000   1.000000
  252       -6.460267     -6.460267   1.000000   1.000000
  253       -6.460267     -6.460267   1.000000   1.000000
  254       -6.460267     -6.460267   1.000000   1.000000
  255       -6.460267     -6.460267   1.000000   1.000000
  256       -6.460254     -6.460254   1.000000   1.000000
  257       -6.460254     -6.460254   1.000000   1.000000
  258       -6.268863     -6.268863   1.000000   1.000000
  259       -6.268863     -6.268863   1.000000   1.000000
  260       -6.268863     -6.268863   1.000000   1.000000
  261       -6.268863     -6.268863   1.000000   1.000000
  262       -6.268848     -6.268849   1.000000   1.000000
  263       -6.268848     -6.268849   1.000000   1.000000
  264       -6.164634     -6.164634   1.000000   1.000000
  265       -6.100818     -6.100818   1.000000   1.000000
  266       -6.100818     -6.100818   1.000000   1.000000
  267       -6.100818     -6.100818   1.000000   1.000000
  268       -6.100818     -6.100818   1.000000   1.000000
  269       -6.100808     -6.100809   1.000000   1.000000
  270       -6.100808     -6.100809   1.000000   1.000000
  271       -5.973033     -5.973033   1.000000   1.000000
  272       -5.973033     -5.973033   1.000000   1.000000
  273       -5.973029     -5.973029   1.000000   1.000000
  274       -5.973029     -5.973029   1.000000   1.000000
  275       -5.973029     -5.973029   1.000000   1.000000
  276       -5.973029     -5.973029   1.000000   1.000000
  277       -5.914398     -5.914399   1.000000   1.000000
  278       -5.914398     -5.914399   1.000000   1.000000
  279       -5.914398     -5.914399   1.000000   1.000000
  280       -5.914398     -5.914399   1.000000   1.000000
  281       -5.914391     -5.914392   1.000000   1.000000
  282       -5.914391     -5.914392   1.000000   1.000000
  283       -5.788587     -5.788587   1.000000   1.000000
  284       -5.788587     -5.788587   1.000000   1.000000
  285       -5.788578     -5.788579   1.000000   1.000000
  286       -5.788578     -5.788579   1.000000   1.000000
  287       -5.788578     -5.788579   1.000000   1.000000
  288       -5.788578     -5.788579   1.000000   1.000000
  289       -5.651154     -5.651154   1.000000   1.000000
  290       -5.651154     -5.651154   1.000000   1.000000
  291       -5.651149     -5.651149   1.000000   1.000000
  292       -5.651149     -5.651149   1.000000   1.000000
  293       -5.651149     -5.651149   1.000000   1.000000
  294       -5.651149     -5.651149   1.000000   1.000000
  295       -5.646799     -5.646799   1.000000   1.000000
  296       -5.646799     -5.646799   1.000000   1.000000
  297       -5.646795     -5.646795   1.000000   1.000000
  298       -5.646795     -5.646795   1.000000   1.000000
  299       -5.646795     -5.646795   1.000000   1.000000
  300       -5.646795     -5.646795   1.000000   1.000000
  301       -5.568534     -5.568534   1.000000   1.000000
  302       -5.568534     -5.568534   1.000000   1.000000
  303       -5.568530     -5.568530   1.000000   1.000000
  304       -5.568530     -5.568530   1.000000   1.000000
  305       -5.568530     -5.568530   1.000000   1.000000
  306       -5.568530     -5.568530   1.000000   1.000000
  307       -5.461935     -5.461936   1.000000   1.000000
  308       -5.461935     -5.461936   1.000000   1.000000
  309       -5.461934     -5.461934   1.000000   1.000000
  310       -5.461934     -5.461934   1.000000   1.000000
  311       -5.461934     -5.461934   1.000000   1.000000
  312       -5.461934     -5.461934   1.000000   1.000000
  313       -5.332698     -5.332698   1.000000   1.000000
  314       -5.332698     -5.332698   1.000000   1.000000
  315       -5.332691     -5.332691   1.000000   1.000000
  316       -5.332691     -5.332691   1.000000   1.000000
  317       -5.332691     -5.332691   1.000000   1.000000
  318       -5.332691     -5.332691   1.000000   1.000000
  319       -5.236337     -5.236338   1.000000   1.000000
  320       -5.236337     -5.236338   1.000000   1.000000
  321       -5.236330     -5.236330   1.000000   1.000000
  322       -5.236330     -5.236330   1.000000   1.000000
  323       -5.236330     -5.236330   1.000000   1.000000
  324       -5.236330     -5.236330   1.000000   1.000000
  325       -4.767185     -4.767184   1.000000   1.000000
  326       -4.767185     -4.767184   1.000000   1.000000
  327       -4.767185     -4.767184   1.000000   1.000000
  328       -4.767185     -4.767184   1.000000   1.000000
  329       -4.767181     -4.767180   1.000000   1.000000
  330       -4.767181     -4.767180   1.000000   1.000000
  331       -4.698799     -4.698799   1.000000   1.000000
  332       -4.698799     -4.698799   1.000000   1.000000
  333       -4.698799     -4.698799   1.000000   1.000000
  334       -4.698799     -4.698799   1.000000   1.000000
  335       -4.698787     -4.698787   1.000000   1.000000
  336       -4.698787     -4.698787   1.000000   1.000000
  337       -4.660748     -4.660748   1.000000   1.000000
  338       -4.660748     -4.660748   1.000000   1.000000
  339       -4.660748     -4.660748   1.000000   1.000000
  340       -4.660748     -4.660748   1.000000   1.000000
  341       -4.660734     -4.660734   1.000000   1.000000
  342       -4.660734     -4.660734   1.000000   1.000000
  343       -4.654011     -4.654010   1.000000   1.000000
  344       -4.654011     -4.654010   1.000000   1.000000
  345       -4.653998     -4.653998   1.000000   1.000000
  346       -4.653998     -4.653998   1.000000   1.000000
  347       -4.653998     -4.653998   1.000000   1.000000
  348       -4.653998     -4.653998   1.000000   1.000000
  349       -4.494868     -4.494868   1.000000   1.000000
  350       -4.494868     -4.494868   1.000000   1.000000
  351       -4.494859     -4.494859   1.000000   1.000000
  352       -4.494859     -4.494859   1.000000   1.000000
  353       -4.494859     -4.494859   1.000000   1.000000
  354       -4.494859     -4.494859   1.000000   1.000000
  355       -4.456407     -4.456407   1.000000   1.000000
  356       -4.456407     -4.456407   1.000000   1.000000
  357       -4.456395     -4.456395   1.000000   1.000000
  358       -4.456395     -4.456395   1.000000   1.000000
  359       -4.456395     -4.456395   1.000000   1.000000
  360       -4.456395     -4.456395   1.000000   1.000000
  361       -4.381543     -4.381543   1.000000   1.000000
  362       -4.381543     -4.381543   1.000000   1.000000
  363       -4.381534     -4.381533   1.000000   1.000000
  364       -4.381534     -4.381533   1.000000   1.000000
  365       -4.381534     -4.381533   1.000000   1.000000
  366       -4.381534     -4.381533   1.000000   1.000000
  367       -4.284124     -4.284124   1.000000   1.000000
  368       -4.284124     -4.284124   1.000000   1.000000
  369       -4.284124     -4.284124   1.000000   1.000000
  370       -4.284124     -4.284124   1.000000   1.000000
  371       -4.284121     -4.284121   1.000000   1.000000
  372       -4.284121     -4.284121   1.000000   1.000000
  373       -4.283509     -4.283509   1.000000   1.000000
  374       -4.283509     -4.283509   1.000000   1.000000
  375       -4.283509     -4.283509   1.000000   1.000000
  376       -4.283509     -4.283509   1.000000   1.000000
  377       -4.283504     -4.283504   1.000000   1.000000
  378       -4.283504     -4.283504   1.000000   1.000000
  379       -4.049470     -4.049469   1.000000   1.000000
  380       -4.049470     -4.049469   1.000000   1.000000
  381       -4.049470     -4.049469   1.000000   1.000000
  382       -4.049470     -4.049469   1.000000   1.000000
  383       -4.049464     -4.049464   1.000000   1.000000
  384       -4.049464     -4.049464   1.000000   1.000000
  385       -3.876167     -3.876167   1.000000   1.000000
  386       -3.876167     -3.876167   1.000000   1.000000
  387       -3.876160     -3.876159   1.000000   1.000000
  388       -3.876160     -3.876159   1.000000   1.000000
  389       -3.876160     -3.876159   1.000000   1.000000
  390       -3.876160     -3.876159   1.000000   1.000000
  391       -3.824949     -3.824949   1.000000   1.000000
  392       -3.824949     -3.824949   1.000000   1.000000
  393       -3.824942     -3.824942   1.000000   1.000000
  394       -3.824942     -3.824942   1.000000   1.000000
  395       -3.824942     -3.824942   1.000000   1.000000
  396       -3.824942     -3.824942   1.000000   1.000000
  397       -3.753510     -3.753511   1.000000   1.000000
  398       -3.753510     -3.753511   1.000000   1.000000
  399       -3.753500     -3.753500   1.000000   1.000000
  400       -3.753500     -3.753500   1.000000   1.000000
  401       -3.753500     -3.753500   1.000000   1.000000
  402       -3.753500     -3.753500   1.000000   1.000000
  403       -3.671163     -3.671164   1.000000   1.000000
  404       -3.671163     -3.671164   1.000000   1.000000
  405       -3.671153     -3.671153   1.000000   1.000000
  406       -3.671153     -3.671153   1.000000   1.000000
  407       -3.671153     -3.671153   1.000000   1.000000
  408       -3.671153     -3.671153   1.000000   1.000000
  409       -3.593865     -3.593865   1.000000   1.000000
  410       -3.593865     -3.593865   1.000000   1.000000
  411       -3.593865     -3.593865   1.000000   1.000000
  412       -3.593865     -3.593865   1.000000   1.000000
  413       -3.593852     -3.593852   1.000000   1.000000
  414       -3.593852     -3.593852   1.000000   1.000000
  415       -3.535624     -3.535624   1.000000   1.000000
  416       -3.535624     -3.535624   1.000000   1.000000
  417       -3.535624     -3.535624   1.000000   1.000000
  418       -3.535624     -3.535624   1.000000   1.000000
  419       -3.535614     -3.535614   1.000000   1.000000
  420       -3.535614     -3.535614   1.000000   1.000000
  421       -3.412094     -3.412094   1.000000   1.000000
  422       -3.412094     -3.412094   1.000000   1.000000
  423       -3.412087     -3.412088   1.000000   1.000000
  424       -3.412087     -3.412088   1.000000   1.000000
  425       -3.412087     -3.412088   1.000000   1.000000
  426       -3.412087     -3.412088   1.000000   1.000000
  427       -3.357947     -3.357946   1.000000   1.000000
  428       -3.357947     -3.357946   1.000000   1.000000
  429       -3.357927     -3.357927   1.000000   1.000000
  430       -3.357927     -3.357927   1.000000   1.000000
  431       -3.357927     -3.357927   1.000000   1.000000
  432       -3.357927     -3.357927   1.000000   1.000000
  433       -3.344596     -3.344595   1.000000   1.000000
  434       -3.344596     -3.344595   1.000000   1.000000
  435       -3.344576     -3.344575   1.000000   1.000000
  436       -3.344576     -3.344575   1.000000   1.000000
  437       -3.344576     -3.344575   1.000000   1.000000
  438       -3.344576     -3.344575   1.000000   1.000000
  439       -3.239280     -3.239280   1.000000   1.000000
  440       -3.239280     -3.239280   1.000000   1.000000
  441       -3.239275     -3.239276   1.000000   1.000000
  442       -3.239275     -3.239276   1.000000   1.000000
  443       -3.239275     -3.239276   1.000000   1.000000
  444       -3.239275     -3.239276   1.000000   1.000000
  445       -2.898710     -2.898709   1.000000   1.000000
  446       -2.898707     -2.898706   1.000000   1.000000
  447       -2.882873     -2.882873   1.000000   1.000000
  448       -2.882870     -2.882869   1.000000   1.000000
  449       -2.765778     -2.765779   1.000000   1.000000
  450       -2.765778     -2.765779   1.000000   1.000000
  451       -2.765778     -2.765778   1.000000   1.000000
  452       -2.765778     -2.765778   1.000000   1.000000
  453       -2.765778     -2.765778   1.000000   1.000000
  454       -2.765778     -2.765778   1.000000   1.000000
  455       -2.753894     -2.753894   1.000000   1.000000
  456       -2.699376     -2.699375   1.000000   1.000000
  457       -2.699376     -2.699375   1.000000   1.000000
  458       -2.699357     -2.699357   1.000000   1.000000
  459       -2.699357     -2.699357   1.000000   1.000000
  460       -2.699357     -2.699357   1.000000   1.000000
  461       -2.699357     -2.699357   1.000000   1.000000
  462       -2.675296     -2.675296   1.000000   1.000000
  463       -2.675296     -2.675296   1.000000   1.000000
  464       -2.675294     -2.675295   1.000000   1.000000
  465       -2.675294     -2.675295   1.000000   1.000000
  466       -2.675294     -2.675295   1.000000   1.000000
  467       -2.675294     -2.675295   1.000000   1.000000
  468       -2.667585     -2.667585   1.000000   1.000000
  469       -2.667585     -2.667585   1.000000   1.000000
  470       -2.667567     -2.667567   1.000000   1.000000
  471       -2.667567     -2.667567   1.000000   1.000000
  472       -2.667567     -2.667567   1.000000   1.000000
  473       -2.667567     -2.667567   1.000000   1.000000
  474       -2.658046     -2.658047   1.000000   1.000000
  475       -2.626103     -2.626102   1.000000   1.000000
  476       -2.626103     -2.626102   1.000000   1.000000
  477       -2.626103     -2.626102   1.000000   1.000000
  478       -2.626103     -2.626102   1.000000   1.000000
  479       -2.626088     -2.626087   1.000000   1.000000
  480       -2.626088     -2.626087   1.000000   1.000000
  481       -2.599568     -2.599568   1.000000   1.000000
  482       -2.599568     -2.599568   1.000000   1.000000
  483       -2.599568     -2.599568   1.000000   1.000000
  484       -2.599568     -2.599568   1.000000   1.000000
  485       -2.599553     -2.599553   1.000000   1.000000
  486       -2.599553     -2.599553   1.000000   1.000000
  487       -2.551358     -2.551358   1.000000   1.000000
  488       -2.551358     -2.551358   1.000000   1.000000
  489       -2.551358     -2.551358   1.000000   1.000000
  490       -2.551358     -2.551358   1.000000   1.000000
  491       -2.551345     -2.551345   1.000000   1.000000
  492       -2.551345     -2.551345   1.000000   1.000000
  493       -2.509676     -2.509676   1.000000   1.000000
  494       -2.509676     -2.509676   1.000000   1.000000
  495       -2.509676     -2.509676   1.000000   1.000000
  496       -2.509676     -2.509676   1.000000   1.000000
  497       -2.509663     -2.509663   1.000000   1.000000
  498       -2.509663     -2.509663   1.000000   1.000000
  499       -1.973844     -1.973843   1.000000   1.000000
  500       -1.973844     -1.973843   1.000000   1.000000
  501       -1.973839     -1.973839   1.000000   1.000000
  502       -1.973839     -1.973839   1.000000   1.000000
  503       -1.973839     -1.973839   1.000000   1.000000
  504       -1.973839     -1.973839   1.000000   1.000000
  505       -1.950369     -1.950369   1.000000   1.000000
  506       -1.950369     -1.950369   1.000000   1.000000
  507       -1.950369     -1.950369   1.000000   1.000000
  508       -1.950369     -1.950369   1.000000   1.000000
  509       -1.950363     -1.950363   1.000000   1.000000
  510       -1.950363     -1.950363   1.000000   1.000000
  511       -1.904445     -1.904446   1.000000   1.000000
  512       -1.904445     -1.904446   1.000000   1.000000