       N       E                     dE             d eps       ncg     rms          rms(c)
DAV:   1     0.170583122621E+03    0.17058E+03   -0.10914E+04  6896   0.788E+02
DAV:   2    -0.414856714720E+01   -0.17473E+03   -0.16852E+03  7912   0.199E+02
DAV:   3    -0.221975999943E+02   -0.18049E+02   -0.17867E+02  7856   0.591E+01
DAV:   4    -0.227255480698E+02   -0.52795E+00   -0.52740E+00  7880   0.121E+01
DAV:   5    -0.227381398582E+02   -0.12592E-01   -0.12591E-01  8568   0.181E+00    0.934E+00
DAV:   6    -0.185081612551E+02    0.42300E+01   -0.16941E+01  7632   0.215E+01    0.494E+00
DAV:   7    -0.182765655678E+02    0.23160E+00   -0.49124E+00  7648   0.124E+01    0.361E+00
DAV:   8    -0.180545081440E+02    0.22206E+00   -0.73020E-01  7008   0.492E+00    0.251E+00
DAV:   9    -0.187520297311E+02   -0.69752E+00   -0.17284E-01  6952   0.213E+00    0.194E+00
DAV:  10    -0.198096696549E+02   -0.10576E+01   -0.58937E-01  7552   0.314E+00    0.146E+00
DAV:  11    -0.206957825930E+02   -0.88611E+00   -0.69849E-01  7840   0.331E+00    0.112E+00
DAV:  12    -0.212440493652E+02   -0.54827E+00   -0.64643E-01  8296   0.320E+00    0.786E-01
DAV:  13    -0.214363257278E+02   -0.19228E+00   -0.26275E-01  8240   0.181E+00    0.612E-01
DAV:  14    -0.214711761942E+02   -0.34850E-01   -0.46449E-02  7128   0.104E+00    0.476E-01
DAV:  15    -0.214670607778E+02    0.41154E-02   -0.59633E-02  8104   0.112E+00    0.338E-01
DAV:  16    -0.215532807290E+02   -0.86220E-01   -0.57364E-02  7920   0.104E+00    0.272E-01
DAV:  17    -0.216416652282E+02   -0.88384E-01   -0.54871E-02  8160   0.104E+00    0.209E-01
DAV:  18    -0.217158685852E+02   -0.74203E-01   -0.31638E-02  7776   0.804E-01    0.137E-01
DAV:  19    -0.217152728119E+02    0.59577E-03   -0.81524E-03  6960   0.482E-01    0.908E-02
DAV:  20    -0.216926263471E+02    0.22646E-01   -0.68993E-03  7104   0.390E-01    0.572E-02
DAV:  21    -0.216858579525E+02    0.67684E-02   -0.80434E-03  6944   0.393E-01    0.304E-02
DAV:  22    -0.216854758712E+02    0.38208E-03   -0.28746E-03  7448   0.238E-01    0.151E-02
DAV:  23    -0.216891594132E+02   -0.36835E-02   -0.38622E-04  6888   0.989E-02    0.754E-03
DAV:  24    -0.216917507496E+02   -0.25913E-02   -0.14334E-04  6768   0.582E-02    0.329E-03
DAV:  25    -0.216926382131E+02   -0.88746E-03   -0.43809E-05  6920   0.285E-02    0.189E-03
DAV:  26    -0.216929403998E+02   -0.30219E-03   -0.10298E-05  7000   0.150E-02    0.104E-03
DAV:  27    -0.216931487150E+02   -0.20832E-03   -0.37887E-06  7016   0.958E-03    0.644E-04
DAV:  28    -0.216931429965E+02    0.57185E-05   -0.10124E-06  7184   0.499E-03    0.429E-04
DAV:  29    -0.216930911492E+02    0.51847E-04   -0.41478E-07  6760   0.335E-03    0.259E-04
DAV:  30    -0.216930317394E+02    0.59410E-04   -0.38748E-07  5856   0.268E-03    0.165E-04
DAV:  31    -0.216930021403E+02    0.29599E-04   -0.11766E-07  5920   0.172E-03    0.109E-04
DAV:  32    -0.216929595076E+02    0.42633E-04   -0.14117E-07  5912   0.175E-03    0.607E-05
DAV:  33    -0.216929522219E+02    0.72857E-05   -0.27228E-08  4904   0.834E-04    0.290E-05
DAV:  34    -0.216929504350E+02    0.17869E-05   -0.24707E-09  5000   0.376E-04    0.181E-05
DAV:  35    -0.216929474697E+02    0.29653E-05    0.19673E-10  4912   0.216E-04    0.966E-06
DAV:  36    -0.216929476741E+02   -0.20437E-06    0.17020E-09  4848   0.129E-04    0.518E-06
DAV:  37    -0.216929480388E+02   -0.36472E-06    0.22692E-09  5272   0.660E-05    0.311E-06
DAV:  38    -0.216929480506E+02   -0.11815E-07    0.24169E-09  5008   0.342E-05
   1 F= -.21692948E+02 E0= -.21692948E+02  d E =-.710373E-11  mag=    -0.0000
