<?xml version="1.0" encoding="ISO-8859-1"?>
<modeling>
 <generator>
  <i name="program" type="string">vasp </i>
  <i name="version" type="string">5.4.1  </i>
  <i name="subversion" type="string">05Feb16 (build Feb 01 2017 11:31:40) complex                          parallel </i>
  <i name="platform" type="string">IFC91_ompi </i>
  <i name="date" type="string">2025 10 21 </i>
  <i name="time" type="string">16:03:25 </i>
 </generator>
 <incar>
  <i type="string" name="SYSTEM"> MoS2 monolayer SCF-warm (SOC OFF)</i>
  <i type="int" name="ISTART">     0</i>
  <i type="string" name="PREC">accurate</i>
  <i type="string" name="ALGO"> Normal</i>
  <i type="logical" name="LSORBIT"> F  </i>
  <i type="logical" name="LNONCOLLINEAR"> F  </i>
  <i type="int" name="ISPIN">     2</i>
  <i type="int" name="ICHARG">     2</i>
  <i type="int" name="IBRION">    -1</i>
  <i name="EDIFF">      0.00000010</i>
  <i type="int" name="NSW">     0</i>
  <i type="int" name="ISIF">     2</i>
  <i name="ENCUT">    600.00000000</i>
  <i type="int" name="NEDOS">  5000</i>
  <i type="logical" name="LREAL"> F  </i>
  <i type="int" name="ISMEAR">     0</i>
  <i name="SIGMA">      0.05000000</i>
  <i type="logical" name="LWAVE"> T  </i>
  <i type="logical" name="LCHARG"> T  </i>
  <v type="int" name="KPOINT_BSE">    -1     0     0     0</v>
  <i type="logical" name="LDIPOL"> T  </i>
  <i type="int" name="IDIPOL">     3</i>
  <v name="DIPOL">      0.50000000      0.50000000      0.50000000</v>
 </incar>
 <kpoints>
  <generation param="Gamma">
   <v type="int" name="divisions">      24       24        1 </v>
   <v name="usershift">      0.00000000       0.00000000       0.00000000 </v>
   <v name="genvec1">      0.04166667       0.00000000       0.00000000 </v>
   <v name="genvec2">      0.00000000       0.04166667       0.00000000 </v>
   <v name="genvec3">      0.00000000       0.00000000       1.00000000 </v>
   <v name="shift">      0.00000000       0.00000000       0.00000000 </v>
  </generation>
  <varray name="kpointlist" >
   <v>       0.00000000       0.00000000       0.00000000 </v>
   <v>       0.04166667       0.00000000       0.00000000 </v>
   <v>       0.08333333       0.00000000       0.00000000 </v>
   <v>       0.12500000       0.00000000       0.00000000 </v>
   <v>       0.16666667      -0.00000000       0.00000000 </v>
   <v>       0.20833333       0.00000000       0.00000000 </v>
   <v>       0.25000000       0.00000000       0.00000000 </v>
   <v>       0.29166667       0.00000000       0.00000000 </v>
   <v>       0.33333333       0.00000000       0.00000000 </v>
   <v>       0.37500000      -0.00000000       0.00000000 </v>
   <v>       0.41666667       0.00000000       0.00000000 </v>
   <v>       0.45833333       0.00000000       0.00000000 </v>
   <v>       0.50000000       0.00000000       0.00000000 </v>
   <v>       0.04166667       0.04166667       0.00000000 </v>
   <v>       0.08333333       0.04166667       0.00000000 </v>
   <v>       0.12500000       0.04166667       0.00000000 </v>
   <v>       0.16666667       0.04166667       0.00000000 </v>
   <v>       0.20833333       0.04166667       0.00000000 </v>
   <v>       0.25000000       0.04166667       0.00000000 </v>
   <v>       0.29166667       0.04166667       0.00000000 </v>
   <v>       0.33333333       0.04166667       0.00000000 </v>
   <v>       0.37500000       0.04166667       0.00000000 </v>
   <v>       0.41666667       0.04166667       0.00000000 </v>
   <v>       0.45833333       0.04166667       0.00000000 </v>
   <v>       0.08333333       0.08333333       0.00000000 </v>
   <v>       0.12500000       0.08333333       0.00000000 </v>
   <v>       0.16666667       0.08333333       0.00000000 </v>
   <v>       0.20833333       0.08333333       0.00000000 </v>
   <v>       0.25000000       0.08333333       0.00000000 </v>
   <v>       0.29166667       0.08333333       0.00000000 </v>
   <v>       0.33333333       0.08333333       0.00000000 </v>
   <v>       0.37500000       0.08333333       0.00000000 </v>
   <v>       0.41666667       0.08333333       0.00000000 </v>
   <v>       0.45833333       0.08333333       0.00000000 </v>
   <v>       0.12500000       0.12500000       0.00000000 </v>
   <v>       0.16666667       0.12500000       0.00000000 </v>
   <v>       0.20833333       0.12500000       0.00000000 </v>
   <v>       0.25000000       0.12500000       0.00000000 </v>
   <v>       0.29166667       0.12500000       0.00000000 </v>
   <v>       0.33333333       0.12500000       0.00000000 </v>
   <v>       0.37500000       0.12500000       0.00000000 </v>
   <v>       0.41666667       0.12500000       0.00000000 </v>
   <v>       0.16666667       0.16666667       0.00000000 </v>
   <v>       0.20833333       0.16666667       0.00000000 </v>
   <v>       0.25000000       0.16666667       0.00000000 </v>
   <v>       0.29166667       0.16666667       0.00000000 </v>
   <v>       0.33333333       0.16666667       0.00000000 </v>
   <v>       0.37500000       0.16666667       0.00000000 </v>
   <v>       0.41666667       0.16666667       0.00000000 </v>
   <v>       0.20833333       0.20833333       0.00000000 </v>
   <v>       0.25000000       0.20833333       0.00000000 </v>
   <v>       0.29166667       0.20833333       0.00000000 </v>
   <v>       0.33333333       0.20833333       0.00000000 </v>
   <v>       0.37500000       0.20833333       0.00000000 </v>
   <v>       0.25000000       0.25000000       0.00000000 </v>
   <v>       0.29166667       0.25000000       0.00000000 </v>
   <v>       0.33333333       0.25000000       0.00000000 </v>
   <v>       0.37500000       0.25000000       0.00000000 </v>
   <v>       0.29166667       0.29166667       0.00000000 </v>
   <v>       0.33333333       0.29166667       0.00000000 </v>
   <v>       0.33333333       0.33333333       0.00000000 </v>
  </varray>
  <varray name="weights" >
   <v>       0.00173611 </v>
   <v>       0.01041667 </v>
   <v>       0.01041667 </v>
   <v>       0.01041667 </v>
   <v>       0.01041667 </v>
   <v>       0.01041667 </v>
   <v>       0.01041667 </v>
   <v>       0.01041667 </v>
   <v>       0.01041667 </v>
   <v>       0.01041667 </v>
   <v>       0.01041667 </v>
   <v>       0.01041667 </v>
   <v>       0.00520833 </v>
   <v>       0.01041667 </v>
   <v>       0.02083333 </v>
   <v>       0.02083333 </v>
   <v>       0.02083333 </v>
   <v>       0.02083333 </v>
   <v>       0.02083333 </v>
   <v>       0.02083333 </v>
   <v>       0.02083333 </v>
   <v>       0.02083333 </v>
   <v>       0.02083333 </v>
   <v>       0.02083333 </v>
   <v>       0.01041667 </v>
   <v>       0.02083333 </v>
   <v>       0.02083333 </v>
   <v>       0.02083333 </v>
   <v>       0.02083333 </v>
   <v>       0.02083333 </v>
   <v>       0.02083333 </v>
   <v>       0.02083333 </v>
   <v>       0.02083333 </v>
   <v>       0.01041667 </v>
   <v>       0.01041667 </v>
   <v>       0.02083333 </v>
   <v>       0.02083333 </v>
   <v>       0.02083333 </v>
   <v>       0.02083333 </v>
   <v>       0.02083333 </v>
   <v>       0.02083333 </v>
   <v>       0.02083333 </v>
   <v>       0.01041667 </v>
   <v>       0.02083333 </v>
   <v>       0.02083333 </v>
   <v>       0.02083333 </v>
   <v>       0.02083333 </v>
   <v>       0.02083333 </v>
   <v>       0.01041667 </v>
   <v>       0.01041667 </v>
   <v>       0.02083333 </v>
   <v>       0.02083333 </v>
   <v>       0.02083333 </v>
   <v>       0.02083333 </v>
   <v>       0.01041667 </v>
   <v>       0.02083333 </v>
   <v>       0.02083333 </v>
   <v>       0.01041667 </v>
   <v>       0.01041667 </v>
   <v>       0.02083333 </v>
   <v>       0.00347222 </v>
  </varray>
 </kpoints>
 <parameters>
  <separator name="general" >
   <i type="string" name="SYSTEM">MoS2 monolayer SCF-warm (SOC OFF)</i>
   <i type="logical" name="LCOMPAT"> F  </i>
  </separator>
  <separator name="electronic" >
   <i type="string" name="PREC">accura</i>
   <i name="ENMAX">    600.00000000</i>
   <i name="ENAUG">    392.42700000</i>
   <i name="EDIFF">      0.00000010</i>
   <i type="int" name="IALGO">    38</i>
   <i type="int" name="IWAVPR">    10</i>
   <i type="int" name="NBANDS">    24</i>
   <i name="NELECT">     24.00000000</i>
   <i type="int" name="TURBO">     0</i>
   <i type="int" name="IRESTART">     0</i>
   <i type="int" name="NREBOOT">     0</i>
   <i type="int" name="NMIN">     0</i>
   <i name="EREF">      0.00000000</i>
   <separator name="electronic smearing" >
    <i type="int" name="ISMEAR">     0</i>
    <i name="SIGMA">      0.05000000</i>
    <i name="KSPACING">      0.50000000</i>
    <i type="logical" name="KGAMMA"> T  </i>
   </separator>
   <separator name="electronic projectors" >
    <i type="logical" name="LREAL"> F  </i>
    <v name="ROPT">      0.00000000      0.00000000</v>
    <i type="int" name="LMAXPAW">  -100</i>
    <i type="int" name="LMAXMIX">     2</i>
    <i type="logical" name="NLSPLINE"> F  </i>
   </separator>
   <separator name="electronic startup" >
    <i type="int" name="ISTART">     0</i>
    <i type="int" name="ICHARG">     2</i>
    <i type="int" name="INIWAV">     1</i>
   </separator>
   <separator name="electronic spin" >
    <i type="int" name="ISPIN">     2</i>
    <i type="logical" name="LNONCOLLINEAR"> F  </i>
    <v name="MAGMOM">      1.00000000      1.00000000      1.00000000</v>
    <i name="NUPDOWN">     -1.00000000</i>
    <i type="logical" name="LSORBIT"> F  </i>
    <v name="SAXIS">      0.00000000      0.00000000      1.00000000</v>
    <i type="logical" name="LSPIRAL"> F  </i>
    <v name="QSPIRAL">      0.00000000      0.00000000      0.00000000</v>
    <i type="logical" name="LZEROZ"> F  </i>
   </separator>
   <separator name="electronic exchange-correlation" >
    <i type="logical" name="LASPH"> F  </i>
    <i type="logical" name="LMETAGGA"> F  </i>
   </separator>
   <separator name="electronic convergence" >
    <i type="int" name="NELM">    60</i>
    <i type="int" name="NELMDL">    -5</i>
    <i type="int" name="NELMIN">     2</i>
    <i name="ENINI">    600.00000000</i>
    <separator name="electronic convergence detail" >
     <i type="logical" name="LDIAG"> T  </i>
     <i type="logical" name="LSUBROT"> F  </i>
     <i name="WEIMIN">      0.00000000</i>
     <i name="EBREAK">      0.00000000</i>
     <i name="DEPER">      0.30000000</i>
     <i type="int" name="NRMM">     4</i>
     <i name="TIME">      0.40000000</i>
    </separator>
   </separator>
   <separator name="electronic mixer" >
    <i name="AMIX">      0.40000000</i>
    <i name="BMIX">      1.00000000</i>
    <i name="AMIN">      0.10000000</i>
    <i name="AMIX_MAG">      1.60000000</i>
    <i name="BMIX_MAG">      1.00000000</i>
    <separator name="electronic mixer details" >
     <i type="int" name="IMIX">     4</i>
     <i type="logical" name="MIXFIRST"> F  </i>
     <i type="int" name="MAXMIX">   -45</i>
     <i name="WC">    100.00000000</i>
     <i type="int" name="INIMIX">     1</i>
     <i type="int" name="MIXPRE">     1</i>
     <i type="int" name="MREMOVE">     5</i>
    </separator>
   </separator>
   <separator name="electronic dipolcorrection" >
    <i type="logical" name="LDIPOL"> T  </i>
    <i type="logical" name="LMONO"> F  </i>
    <i type="int" name="IDIPOL">     3</i>
    <i name="EPSILON">      1.00000000</i>
    <v name="DIPOL">      0.50000000      0.50000000      0.50000000</v>
    <i name="EFIELD">      0.00000000</i>
   </separator>
  </separator>
  <separator name="grids" >
   <i type="int" name="NGX">    28</i>
   <i type="int" name="NGY">    28</i>
   <i type="int" name="NGZ">   280</i>
   <i type="int" name="NGXF">    56</i>
   <i type="int" name="NGYF">    56</i>
   <i type="int" name="NGZF">   560</i>
   <i type="logical" name="ADDGRID"> F  </i>
  </separator>
  <separator name="ionic" >
   <i type="int" name="NSW">     0</i>
   <i type="int" name="IBRION">    -1</i>
   <i type="int" name="ISIF">     2</i>
   <i name="PSTRESS">      0.00000000</i>
   <i name="EDIFFG">      0.00000100</i>
   <i type="int" name="NFREE">     0</i>
   <i name="POTIM">      0.50000000</i>
   <i name="SMASS">     -3.00000000</i>
   <i name="SCALEE">      1.00000000</i>
  </separator>
  <separator name="ionic md" >
   <i name="TEBEG">      0.00010000</i>
   <i name="TEEND">      0.00010000</i>
   <i type="int" name="NBLOCK">     1</i>
   <i type="int" name="KBLOCK">     1</i>
   <i type="int" name="NPACO">   256</i>
   <i name="APACO">     16.00000000</i>
  </separator>
  <separator name="symmetry" >
   <i type="int" name="ISYM">     2</i>
   <i name="SYMPREC">      0.00001000</i>
  </separator>
  <separator name="dos" >
   <i type="logical" name="LORBIT"> F  </i>
   <v name="RWIGS">     -1.00000000     -1.00000000</v>
   <i type="int" name="NEDOS">  5000</i>
   <i name="EMIN">     10.00000000</i>
   <i name="EMAX">    -10.00000000</i>
   <i name="EFERMI">      0.00000000</i>
  </separator>
  <separator name="writing" >
   <i type="int" name="NWRITE">     2</i>
   <i type="logical" name="LWAVE"> T  </i>
   <i type="logical" name="LCHARG"> T  </i>
   <i type="logical" name="LPARD"> F  </i>
   <i type="logical" name="LVTOT"> F  </i>
   <i type="logical" name="LVHAR"> F  </i>
   <i type="logical" name="LELF"> F  </i>
   <i type="logical" name="LOPTICS"> F  </i>
   <v name="STM">      0.00000000      0.00000000      0.00000000      0.00000000      0.00000000      0.00000000      0.00000000</v>
  </separator>
  <separator name="performance" >
   <i type="int" name="NPAR">     8</i>
   <i type="int" name="NSIM">     4</i>
   <i type="int" name="NBLK">    -1</i>
   <i type="logical" name="LPLANE"> T  </i>
   <i type="logical" name="LSCALAPACK"> T  </i>
   <i type="logical" name="LSCAAWARE"> F  </i>
   <i type="logical" name="LSCALU"> F  </i>
   <i type="logical" name="LASYNC"> F  </i>
   <i type="logical" name="LORBITALREAL"> F  </i>
  </separator>
  <separator name="miscellaneous" >
   <i type="int" name="IDIOT">     3</i>
   <i type="logical" name="LMUSIC"> F  </i>
   <v name="POMASS">     95.94000000     32.06600000</v>
   <v name="DARWINR">      0.00000000      0.00000000</v>
   <v name="DARWINV">      1.00000000      1.00000000</v>
   <i type="logical" name="LCORR"> T  </i>
  </separator>
  <i type="logical" name="GGA_COMPAT"> T  </i>
  <i type="logical" name="LBERRY"> F  </i>
  <i type="int" name="ICORELEVEL">     0</i>
  <i type="logical" name="LDAU"> F  </i>
  <i type="int" name="I_CONSTRAINED_M">     0</i>
  <separator name="electronic exchange-correlation" >
   <i type="string" name="GGA">--</i>
   <i type="int" name="VOSKOWN">     0</i>
   <i type="logical" name="LHFCALC"> F  </i>
   <i type="string" name="PRECFOCK"></i>
   <i type="logical" name="LSYMGRAD"> F  </i>
   <i type="logical" name="LHFONE"> F  </i>
   <i type="logical" name="LRHFCALC"> F  </i>
   <i type="logical" name="LTHOMAS"> F  </i>
   <i type="logical" name="LMODELHF"> F  </i>
   <i name="ENCUT4O">     -1.00000000</i>
   <i type="int" name="EXXOEP">     0</i>
   <i type="int" name="FOURORBIT">     0</i>
   <i name="AEXX">      0.00000000</i>
   <i name="HFALPHA">      0.00000000</i>
   <i name="MCALPHA">      0.00000000</i>
   <i name="ALDAX">      1.00000000</i>
   <i name="AGGAX">      1.00000000</i>
   <i name="ALDAC">      1.00000000</i>
   <i name="AGGAC">      1.00000000</i>
   <i type="int" name="NKREDX">     1</i>
   <i type="int" name="NKREDY">     1</i>
   <i type="int" name="NKREDZ">     1</i>
   <i type="logical" name="SHIFTRED"> F  </i>
   <i type="logical" name="ODDONLY"> F  </i>
   <i type="logical" name="EVENONLY"> F  </i>
   <i type="int" name="LMAXFOCK">     0</i>
   <i type="int" name="NMAXFOCKAE">     0</i>
   <i type="logical" name="LFOCKAEDFT"> F  </i>
   <i name="HFSCREEN">      0.00000000</i>
   <i name="HFSCREENC">      0.00000000</i>
   <i type="int" name="NBANDSGWLOW">     0</i>
  </separator>
  <separator name="vdW DFT" >
   <i type="logical" name="LUSE_VDW"> F  </i>
   <i name="Zab_VDW">     -0.84910000</i>
   <i name="PARAM1">      0.12340000</i>
   <i name="PARAM2">      1.00000000</i>
   <i name="PARAM3">      0.00000000</i>
  </separator>
  <separator name="model GW" >
   <i type="int" name="MODEL_GW">     0</i>
   <i name="MODEL_EPS0">     63.11239540</i>
   <i name="MODEL_ALPHA">      1.00000000</i>
  </separator>
  <separator name="linear response parameters" >
   <i type="logical" name="LEPSILON"> F  </i>
   <i type="logical" name="LRPA"> F  </i>
   <i type="logical" name="LNABLA"> F  </i>
   <i type="logical" name="LVEL"> F  </i>
   <i type="int" name="KINTER">     0</i>
   <i name="CSHIFT">      0.10000000</i>
   <i name="OMEGAMAX">     -1.00000000</i>
   <i name="DEG_THRESHOLD">      0.00200000</i>
  </separator>
  <separator name="orbital magnetization" >
   <i type="logical" name="NUCIND"> F  </i>
   <v name="MAGPOS">      0.00000000      0.00000000      0.00000000</v>
   <i type="logical" name="LNICSALL"> T  </i>
   <i type="logical" name="ORBITALMAG"> F  </i>
   <i type="logical" name="LMAGBLOCH"> F  </i>
   <i type="logical" name="LCHIMAG"> F  </i>
   <i type="logical" name="LGAUGE"> T  </i>
   <i type="int" name="MAGATOM">     0</i>
   <v name="MAGDIPOL">      0.00000000      0.00000000      0.00000000</v>
   <v name="AVECCONST">      0.00000000      0.00000000      0.00000000</v>
  </separator>
  <separator name="response functions" >
   <i type="logical" name="LADDER"> F  </i>
   <i type="logical" name="LFXC"> F  </i>
   <i type="logical" name="LHARTREE"> T  </i>
   <i type="int" name="IBSE">     0</i>
   <v type="int" name="KPOINT">    -1     0     0     0</v>
   <i type="logical" name="LTCTE"> F  </i>
   <i type="logical" name="LTETE"> F  </i>
   <i type="logical" name="LTRIPLET"> F  </i>
   <i type="logical" name="LFXCEPS"> F  </i>
   <i type="logical" name="LFXHEG"> F  </i>
   <i type="int" name="NATURALO">     0</i>
   <i type="logical" name="L2ORDER"> F  </i>
   <i type="logical" name="LUSEW"> F  </i>
   <i name="ENCUTGW">     -2.00000000</i>
   <i name="ENCUTGWSOFT">     -2.00000000</i>
   <i name="ENCUTLF">     -1.00000000</i>
   <i type="int" name="LMAXMP2">    -1</i>
   <i name="SCISSOR">      0.00000000</i>
   <i type="int" name="NOMEGA">     0</i>
   <i type="int" name="NOMEGAR">     0</i>
   <i type="int" name="NBANDSGW">    -1</i>
   <i type="int" name="NBANDSO">    -1</i>
   <i type="int" name="NBANDSV">    -1</i>
   <i type="int" name="NELM">     1</i>
   <i type="int" name="NELMHF">     1</i>
   <i type="int" name="DIM">     3</i>
   <i type="int" name="ANTIRES">     0</i>
   <i name="OMEGAMAX">    -30.00000000</i>
   <i name="OMEGAMIN">    -30.00000000</i>
   <i name="OMEGATL">   -200.00000000</i>
   <i type="int" name="OMEGAGRID">     0</i>
   <i name="CSHIFT">     -0.10000000</i>
   <i type="logical" name="SELFENERGY"> F  </i>
   <i type="logical" name="LSPECTRAL"> F  </i>
   <i type="logical" name="LSPECTRALGW"> F  </i>
   <i type="logical" name="LSINGLES"> F  </i>
   <i type="logical" name="LFERMIGW"> F  </i>
   <i type="logical" name="ODDONLYGW"> F  </i>
   <i type="logical" name="EVENONLYGW"> F  </i>
   <i type="int" name="NKREDLFX">     1</i>
   <i type="int" name="NKREDLFY">     1</i>
   <i type="int" name="NKREDLFZ">     1</i>
   <i type="int" name="MAXMEM">  1800</i>
   <i type="int" name="TELESCOPE">     0</i>
   <i type="int" name="TAUPAR">     1</i>
   <i type="int" name="OMEGAPAR">    -1</i>
   <i name="LAMBDA">      1.00000000</i>
  </separator>
  <separator name="External order field" >
   <i name="OFIELD_KAPPA">      0.00000000</i>
   <v name="OFIELD_K">      0.00000000      0.00000000      0.00000000</v>
   <i name="OFIELD_Q6_NEAR">      0.00000000</i>
   <i name="OFIELD_Q6_FAR">      0.00000000</i>
   <i name="OFIELD_A">      0.00000000</i>
  </separator>
  <separator name="solvation model" >
   <i type="logical" name="LSOL"> F  </i>
  </separator>
 </parameters>
 <atominfo>
  <atoms>       3 </atoms>
  <types>       2 </types>
  <array name="atoms" >
   <dimension dim="1">ion</dimension>
   <field type="string">element</field>
   <field type="int">atomtype</field>
   <set>
    <rc><c>Mo</c><c>   1</c></rc>
    <rc><c>S </c><c>   2</c></rc>
    <rc><c>S </c><c>   2</c></rc>
   </set>
  </array>
  <array name="atomtypes" >
   <dimension dim="1">type</dimension>
   <field type="int">atomspertype</field>
   <field type="string">element</field>
   <field>mass</field>
   <field>valence</field>
   <field type="string">pseudopotential</field>
   <set>
    <rc><c>   1</c><c>Mo</c><c>     95.94000000</c><c>     12.00000000</c><c> PAW_PBE Mo_pv 08Apr2002                </c></rc>
    <rc><c>   2</c><c>S </c><c>     32.06600000</c><c>      6.00000000</c><c>  PAW_PBE S 17Jan2003                   </c></rc>
   </set>
  </array>
 </atominfo>
 <structure name="initialpos" >
  <crystal>
   <varray name="basis" >
    <v>       1.61415312      -2.79579451       0.00000000 </v>
    <v>       1.61415312       2.79579451       0.00000000 </v>
    <v>       0.00000000       0.00000000      34.96267827 </v>
   </varray>
   <i name="volume">    315.56197699 </i>
   <varray name="rec_basis" >
    <v>       0.30975996      -0.17884004       0.00000000 </v>
    <v>       0.30975996       0.17884004       0.00000000 </v>
    <v>       0.00000000       0.00000000       0.02860193 </v>
   </varray>
  </crystal>
  <varray name="positions" >
   <v>       0.66666700       0.33333300       0.10664700 </v>
   <v>       0.33333300       0.66666700       0.06198962 </v>
   <v>       0.33333300       0.66666700       0.15130538 </v>
  </varray>
 </structure>
 <calculation>
  <scstep>
   <time name="dav">   15.41   15.41</time>
   <time name="total">   15.74   15.75</time>
   <dipole>
    <v name="dipole">      0.00000000       0.00000000       0.42979289 </v>
    <i name="Tr[quadrupol]">    -56.02251097 </i>
    <i name="Echarged">      0.00000000 </i>
    <i name="Edipol_quadrupol">      0.00000000 </i>
    <i name="Eion">      0.00000000 </i>
   </dipole>
   <energy>
    <i name="alphaZ">     98.12405602 </i>
    <i name="ewald">  11561.09611740 </i>
    <i name="hartreedc"> -13126.39485841 </i>
    <i name="XCdc">     62.31828668 </i>
    <i name="pawpsdc">   1093.95511141 </i>
    <i name="pawaedc">  -1068.01160938 </i>
    <i name="eentropy">     -0.00240582 </i>
    <i name="bandstr">   -288.44575179 </i>
    <i name="atom">   1837.94417650 </i>
    <i name="e_fr_energy">    170.58312262 </i>
    <i name="e_wo_entrp">    170.58552844 </i>
    <i name="e_0_energy">    170.58432553 </i>
   </energy>
  </scstep>
  <scstep>
   <time name="dav">   16.98   17.25</time>
   <time name="total">   16.98   17.25</time>
   <dipole>
    <v name="dipole">      0.00000000       0.00000000       0.42979289 </v>
    <i name="Tr[quadrupol]">    -56.02251097 </i>
    <i name="Echarged">      0.00000000 </i>
    <i name="Edipol_quadrupol">      0.00000000 </i>
    <i name="Eion">      0.00000000 </i>
   </dipole>
   <energy>
    <i name="e_fr_energy">     -4.14856715 </i>
    <i name="e_wo_entrp">     -4.14856715 </i>
    <i name="e_0_energy">     -4.14856715 </i>
   </energy>
  </scstep>
  <scstep>
   <time name="dav">   17.15   17.18</time>
   <time name="total">   17.16   17.19</time>
   <dipole>
    <v name="dipole">      0.00000000       0.00000000       0.42979289 </v>
    <i name="Tr[quadrupol]">    -56.02251097 </i>
    <i name="Echarged">      0.00000000 </i>
    <i name="Edipol_quadrupol">      0.00000000 </i>
    <i name="Eion">      0.00000000 </i>
   </dipole>
   <energy>
    <i name="e_fr_energy">    -22.19759999 </i>
    <i name="e_wo_entrp">    -22.19759999 </i>
    <i name="e_0_energy">    -22.19759999 </i>
   </energy>
  </scstep>
  <scstep>
   <time name="dav">   17.21   17.36</time>
   <time name="total">   17.22   17.37</time>
   <dipole>
    <v name="dipole">      0.00000000       0.00000000       0.42979289 </v>
    <i name="Tr[quadrupol]">    -56.02251097 </i>
    <i name="Echarged">      0.00000000 </i>
    <i name="Edipol_quadrupol">      0.00000000 </i>
    <i name="Eion">      0.00000000 </i>
   </dipole>
   <energy>
    <i name="e_fr_energy">    -22.72554807 </i>
    <i name="e_wo_entrp">    -22.72554807 </i>
    <i name="e_0_energy">    -22.72554807 </i>
   </energy>
  </scstep>
  <scstep>
   <time name="dav">   17.88   17.88</time>
   <time name="total">   18.93   18.93</time>
   <dipole>
    <v name="dipole">      0.00000000       0.00000000       0.42979289 </v>
    <i name="Tr[quadrupol]">    -56.02251097 </i>
    <i name="Echarged">      0.00000000 </i>
    <i name="Edipol_quadrupol">      0.00000000 </i>
    <i name="Eion">      0.00000000 </i>
   </dipole>
   <energy>
    <i name="e_fr_energy">    -22.73813986 </i>
    <i name="e_wo_entrp">    -22.73813986 </i>
    <i name="e_0_energy">    -22.73813986 </i>
   </energy>
  </scstep>
  <scstep>
   <time name="dav">   17.92   18.04</time>
   <time name="total">   19.27   19.41</time>
   <dipole>
    <v name="dipole">      0.00000000       0.00000000       0.36929337 </v>
    <i name="Tr[quadrupol]">    -55.61087292 </i>
    <i name="Echarged">      0.00000000 </i>
    <i name="Edipol_quadrupol">      0.00000000 </i>
    <i name="Eion">      0.00000000 </i>
   </dipole>
   <energy>
    <i name="e_fr_energy">    -18.50816126 </i>
    <i name="e_wo_entrp">    -18.50800220 </i>
    <i name="e_0_energy">    -18.50808173 </i>
   </energy>
  </scstep>
  <scstep>
   <time name="dav">   17.04   17.42</time>
   <time name="total">   18.44   18.83</time>
   <dipole>
    <v name="dipole">      0.00000000       0.00000000       0.60224667 </v>
    <i name="Tr[quadrupol]">    -56.38961562 </i>
    <i name="Echarged">      0.00000000 </i>
    <i name="Edipol_quadrupol">      0.00000000 </i>
    <i name="Eion">      0.00000000 </i>
   </dipole>
   <energy>
    <i name="e_fr_energy">    -18.27656557 </i>
    <i name="e_wo_entrp">    -18.27656557 </i>
    <i name="e_0_energy">    -18.27656557 </i>
   </energy>
  </scstep>
  <scstep>
   <time name="dav">   15.34   15.34</time>
   <time name="total">   16.70   16.70</time>
   <dipole>
    <v name="dipole">      0.00000000       0.00000000       0.69168757 </v>
    <i name="Tr[quadrupol]">    -56.46575354 </i>
    <i name="Echarged">      0.00000000 </i>
    <i name="Edipol_quadrupol">      0.00000000 </i>
    <i name="Eion">      0.00000000 </i>
   </dipole>
   <energy>
    <i name="e_fr_energy">    -18.05450814 </i>
    <i name="e_wo_entrp">    -18.05450814 </i>
    <i name="e_0_energy">    -18.05450814 </i>
   </energy>
  </scstep>
  <scstep>
   <time name="dav">   15.96   16.10</time>
   <time name="total">   17.32   17.46</time>
   <dipole>
    <v name="dipole">      0.00000000       0.00000000       0.72539074 </v>
    <i name="Tr[quadrupol]">    -56.46633241 </i>
    <i name="Echarged">      0.00000000 </i>
    <i name="Edipol_quadrupol">      0.00000000 </i>
    <i name="Eion">      0.00000000 </i>
   </dipole>
   <energy>
    <i name="e_fr_energy">    -18.75202973 </i>
    <i name="e_wo_entrp">    -18.75202973 </i>
    <i name="e_0_energy">    -18.75202973 </i>
   </energy>
  </scstep>
  <scstep>
   <time name="dav">   16.20   16.20</time>
   <time name="total">   17.56   17.56</time>
   <dipole>
    <v name="dipole">      0.00000000       0.00000000       0.55087353 </v>
    <i name="Tr[quadrupol]">    -55.95423844 </i>
    <i name="Echarged">      0.00000000 </i>
    <i name="Edipol_quadrupol">      0.00000000 </i>
    <i name="Eion">      0.00000000 </i>
   </dipole>
   <energy>
    <i name="e_fr_energy">    -19.80966965 </i>
    <i name="e_wo_entrp">    -19.80966965 </i>
    <i name="e_0_energy">    -19.80966965 </i>
   </energy>
  </scstep>
  <scstep>
   <time name="dav">   16.75   16.75</time>
   <time name="total">   18.10   18.11</time>
   <dipole>
    <v name="dipole">      0.00000000       0.00000000       0.29616099 </v>
    <i name="Tr[quadrupol]">    -55.34008311 </i>
    <i name="Echarged">      0.00000000 </i>
    <i name="Edipol_quadrupol">      0.00000000 </i>
    <i name="Eion">      0.00000000 </i>
   </dipole>
   <energy>
    <i name="e_fr_energy">    -20.69578259 </i>
    <i name="e_wo_entrp">    -20.69578259 </i>
    <i name="e_0_energy">    -20.69578259 </i>
   </energy>
  </scstep>
  <scstep>
   <time name="dav">   19.38   19.52</time>
   <time name="total">   20.66   20.82</time>
   <dipole>
    <v name="dipole">      0.00000000       0.00000000      -0.03628078 </v>
    <i name="Tr[quadrupol]">    -54.68855604 </i>
    <i name="Echarged">      0.00000000 </i>
    <i name="Edipol_quadrupol">      0.00000000 </i>
    <i name="Eion">      0.00000000 </i>
   </dipole>
   <energy>
    <i name="e_fr_energy">    -21.24404937 </i>
    <i name="e_wo_entrp">    -21.24404937 </i>
    <i name="e_0_energy">    -21.24404937 </i>
   </energy>
  </scstep>
  <scstep>
   <time name="dav">   17.38   17.38</time>
   <time name="total">   18.73   18.73</time>
   <dipole>
    <v name="dipole">      0.00000000       0.00000000      -0.15137286 </v>
    <i name="Tr[quadrupol]">    -54.64509878 </i>
    <i name="Echarged">      0.00000000 </i>
    <i name="Edipol_quadrupol">      0.00000000 </i>
    <i name="Eion">      0.00000000 </i>
   </dipole>
   <energy>
    <i name="e_fr_energy">    -21.43632573 </i>
    <i name="e_wo_entrp">    -21.43632573 </i>
    <i name="e_0_energy">    -21.43632573 </i>
   </energy>
  </scstep>
  <scstep>
   <time name="dav">   15.27   15.53</time>
   <time name="total">   16.63   16.89</time>
   <dipole>
    <v name="dipole">      0.00000000       0.00000000      -0.11689924 </v>
    <i name="Tr[quadrupol]">    -55.04900869 </i>
    <i name="Echarged">      0.00000000 </i>
    <i name="Edipol_quadrupol">      0.00000000 </i>
    <i name="Eion">      0.00000000 </i>
   </dipole>
   <energy>
    <i name="e_fr_energy">    -21.47117619 </i>
    <i name="e_wo_entrp">    -21.47117619 </i>
    <i name="e_0_energy">    -21.47117619 </i>
   </energy>
  </scstep>
  <scstep>
   <time name="dav">   17.15   17.15</time>
   <time name="total">   18.51   18.51</time>
   <dipole>
    <v name="dipole">      0.00000000       0.00000000       0.02749579 </v>
    <i name="Tr[quadrupol]">    -55.58406806 </i>
    <i name="Echarged">      0.00000000 </i>
    <i name="Edipol_quadrupol">      0.00000000 </i>
    <i name="Eion">      0.00000000 </i>
   </dipole>
   <energy>
    <i name="e_fr_energy">    -21.46706078 </i>
    <i name="e_wo_entrp">    -21.46706078 </i>
    <i name="e_0_energy">    -21.46706078 </i>
   </energy>
  </scstep>
  <scstep>
   <time name="dav">   17.47   17.58</time>
   <time name="total">   18.91   19.06</time>
   <dipole>
    <v name="dipole">      0.00000000       0.00000000       0.16433349 </v>
    <i name="Tr[quadrupol]">    -55.84306214 </i>
    <i name="Echarged">      0.00000000 </i>
    <i name="Edipol_quadrupol">      0.00000000 </i>
    <i name="Eion">      0.00000000 </i>
   </dipole>
   <energy>
    <i name="e_fr_energy">    -21.55328073 </i>
    <i name="e_wo_entrp">    -21.55328073 </i>
    <i name="e_0_energy">    -21.55328073 </i>
   </energy>
  </scstep>
  <scstep>
   <time name="dav">   17.01   17.01</time>
   <time name="total">   18.38   18.38</time>
   <dipole>
    <v name="dipole">      0.00000000       0.00000000       0.30403070 </v>
    <i name="Tr[quadrupol]">    -55.89195189 </i>
    <i name="Echarged">      0.00000000 </i>
    <i name="Edipol_quadrupol">      0.00000000 </i>
    <i name="Eion">      0.00000000 </i>
   </dipole>
   <energy>
    <i name="e_fr_energy">    -21.64166523 </i>
    <i name="e_wo_entrp">    -21.64166523 </i>
    <i name="e_0_energy">    -21.64166523 </i>
   </energy>
  </scstep>
  <scstep>
   <time name="dav">   16.66   16.66</time>
   <time name="total">   18.02   18.02</time>
   <dipole>
    <v name="dipole">      0.00000000       0.00000000       0.40630450 </v>
    <i name="Tr[quadrupol]">    -55.76707792 </i>
    <i name="Echarged">      0.00000000 </i>
    <i name="Edipol_quadrupol">      0.00000000 </i>
    <i name="Eion">      0.00000000 </i>
   </dipole>
   <energy>
    <i name="e_fr_energy">    -21.71586859 </i>
    <i name="e_wo_entrp">    -21.71586859 </i>
    <i name="e_0_energy">    -21.71586859 </i>
   </energy>
  </scstep>
  <scstep>
   <time name="dav">   15.90   15.94</time>
   <time name="total">   17.26   17.29</time>
   <dipole>
    <v name="dipole">      0.00000000       0.00000000       0.37270805 </v>
    <i name="Tr[quadrupol]">    -55.58883443 </i>
    <i name="Echarged">      0.00000000 </i>
    <i name="Edipol_quadrupol">      0.00000000 </i>
    <i name="Eion">      0.00000000 </i>
   </dipole>
   <energy>
    <i name="e_fr_energy">    -21.71527281 </i>
    <i name="e_wo_entrp">    -21.71527281 </i>
    <i name="e_0_energy">    -21.71527281 </i>
   </energy>
  </scstep>
  <scstep>
   <time name="dav">   15.59   15.59</time>
   <time name="total">   16.95   16.96</time>
   <dipole>
    <v name="dipole">      0.00000000       0.00000000       0.32005978 </v>
    <i name="Tr[quadrupol]">    -55.51785680 </i>
    <i name="Echarged">      0.00000000 </i>
    <i name="Edipol_quadrupol">      0.00000000 </i>
    <i name="Eion">      0.00000000 </i>
   </dipole>
   <energy>
    <i name="e_fr_energy">    -21.69262635 </i>
    <i name="e_wo_entrp">    -21.69262635 </i>
    <i name="e_0_energy">    -21.69262635 </i>
   </energy>
  </scstep>
  <scstep>
   <time name="dav">   15.44   15.44</time>
   <time name="total">   16.75   16.83</time>
   <dipole>
    <v name="dipole">      0.00000000       0.00000000       0.26660508 </v>
    <i name="Tr[quadrupol]">    -55.53841047 </i>
    <i name="Echarged">      0.00000000 </i>
    <i name="Edipol_quadrupol">      0.00000000 </i>
    <i name="Eion">      0.00000000 </i>
   </dipole>
   <energy>
    <i name="e_fr_energy">    -21.68585795 </i>
    <i name="e_wo_entrp">    -21.68585795 </i>
    <i name="e_0_energy">    -21.68585795 </i>
   </energy>
  </scstep>
  <scstep>
   <time name="dav">   16.29   16.46</time>
   <time name="total">   17.62   17.80</time>
   <dipole>
    <v name="dipole">      0.00000000       0.00000000       0.23862036 </v>
    <i name="Tr[quadrupol]">    -55.58759542 </i>
    <i name="Echarged">      0.00000000 </i>
    <i name="Edipol_quadrupol">      0.00000000 </i>
    <i name="Eion">      0.00000000 </i>
   </dipole>
   <energy>
    <i name="e_fr_energy">    -21.68547587 </i>
    <i name="e_wo_entrp">    -21.68547587 </i>
    <i name="e_0_energy">    -21.68547587 </i>
   </energy>
  </scstep>
  <scstep>
   <time name="dav">   15.65   16.00</time>
   <time name="total">   17.18   17.61</time>
   <dipole>
    <v name="dipole">      0.00000000       0.00000000       0.24132759 </v>
    <i name="Tr[quadrupol]">    -55.61792812 </i>
    <i name="Echarged">      0.00000000 </i>
    <i name="Edipol_quadrupol">      0.00000000 </i>
    <i name="Eion">      0.00000000 </i>
   </dipole>
   <energy>
    <i name="e_fr_energy">    -21.68915941 </i>
    <i name="e_wo_entrp">    -21.68915941 </i>
    <i name="e_0_energy">    -21.68915941 </i>
   </energy>
  </scstep>
  <scstep>
   <time name="dav">   16.23   16.77</time>
   <time name="total">   17.68   18.23</time>
   <dipole>
    <v name="dipole">      0.00000000       0.00000000       0.24865703 </v>
    <i name="Tr[quadrupol]">    -55.63224779 </i>
    <i name="Echarged">      0.00000000 </i>
    <i name="Edipol_quadrupol">      0.00000000 </i>
    <i name="Eion">      0.00000000 </i>
   </dipole>
   <energy>
    <i name="e_fr_energy">    -21.69175075 </i>
    <i name="e_wo_entrp">    -21.69175075 </i>
    <i name="e_0_energy">    -21.69175075 </i>
   </energy>
  </scstep>
  <scstep>
   <time name="dav">   15.40   15.40</time>
   <time name="total">   16.77   16.77</time>
   <dipole>
    <v name="dipole">      0.00000000       0.00000000       0.25150073 </v>
    <i name="Tr[quadrupol]">    -55.63252911 </i>
    <i name="Echarged">      0.00000000 </i>
    <i name="Edipol_quadrupol">      0.00000000 </i>
    <i name="Eion">      0.00000000 </i>
   </dipole>
   <energy>
    <i name="e_fr_energy">    -21.69263821 </i>
    <i name="e_wo_entrp">    -21.69263821 </i>
    <i name="e_0_energy">    -21.69263821 </i>
   </energy>
  </scstep>
  <scstep>
   <time name="dav">   16.49   16.54</time>
   <time name="total">   17.86   17.91</time>
   <dipole>
    <v name="dipole">      0.00000000       0.00000000       0.25249030 </v>
    <i name="Tr[quadrupol]">    -55.62841488 </i>
    <i name="Echarged">      0.00000000 </i>
    <i name="Edipol_quadrupol">      0.00000000 </i>
    <i name="Eion">      0.00000000 </i>
   </dipole>
   <energy>
    <i name="e_fr_energy">    -21.69294040 </i>
    <i name="e_wo_entrp">    -21.69294040 </i>
    <i name="e_0_energy">    -21.69294040 </i>
   </energy>
  </scstep>
  <scstep>
   <time name="dav">   16.99   16.99</time>
   <time name="total">   18.36   18.36</time>
   <dipole>
    <v name="dipole">      0.00000000       0.00000000       0.25338217 </v>
    <i name="Tr[quadrupol]">    -55.62468013 </i>
    <i name="Echarged">      0.00000000 </i>
    <i name="Edipol_quadrupol">      0.00000000 </i>
    <i name="Eion">      0.00000000 </i>
   </dipole>
   <energy>
    <i name="e_fr_energy">    -21.69314872 </i>
    <i name="e_wo_entrp">    -21.69314872 </i>
    <i name="e_0_energy">    -21.69314872 </i>
   </energy>
  </scstep>
  <scstep>
   <time name="dav">   15.88   15.88</time>
   <time name="total">   17.25   17.25</time>
   <dipole>
    <v name="dipole">      0.00000000       0.00000000       0.25326523 </v>
    <i name="Tr[quadrupol]">    -55.62253856 </i>
    <i name="Echarged">      0.00000000 </i>
    <i name="Edipol_quadrupol">      0.00000000 </i>
    <i name="Eion">      0.00000000 </i>
   </dipole>
   <energy>
    <i name="e_fr_energy">    -21.69314300 </i>
    <i name="e_wo_entrp">    -21.69314300 </i>
    <i name="e_0_energy">    -21.69314300 </i>
   </energy>
  </scstep>
  <scstep>
   <time name="dav">   15.87   16.07</time>
   <time name="total">   17.24   17.44</time>
   <dipole>
    <v name="dipole">      0.00000000       0.00000000       0.25294107 </v>
    <i name="Tr[quadrupol]">    -55.62055887 </i>
    <i name="Echarged">      0.00000000 </i>
    <i name="Edipol_quadrupol">      0.00000000 </i>
    <i name="Eion">      0.00000000 </i>
   </dipole>
   <energy>
    <i name="e_fr_energy">    -21.69309115 </i>
    <i name="e_wo_entrp">    -21.69309115 </i>
    <i name="e_0_energy">    -21.69309115 </i>
   </energy>
  </scstep>
  <scstep>
   <time name="dav">   13.75   13.75</time>
   <time name="total">   15.12   15.12</time>
   <dipole>
    <v name="dipole">      0.00000000       0.00000000       0.25258821 </v>
    <i name="Tr[quadrupol]">    -55.61916537 </i>
    <i name="Echarged">      0.00000000 </i>
    <i name="Edipol_quadrupol">      0.00000000 </i>
    <i name="Eion">      0.00000000 </i>
   </dipole>
   <energy>
    <i name="e_fr_energy">    -21.69303174 </i>
    <i name="e_wo_entrp">    -21.69303174 </i>
    <i name="e_0_energy">    -21.69303174 </i>
   </energy>
  </scstep>
  <scstep>
   <time name="dav">   13.84   13.84</time>
   <time name="total">   15.21   15.22</time>
   <dipole>
    <v name="dipole">      0.00000000       0.00000000       0.25242113 </v>
    <i name="Tr[quadrupol]">    -55.61901709 </i>
    <i name="Echarged">      0.00000000 </i>
    <i name="Edipol_quadrupol">      0.00000000 </i>
    <i name="Eion">      0.00000000 </i>
   </dipole>
   <energy>
    <i name="e_fr_energy">    -21.69300214 </i>
    <i name="e_wo_entrp">    -21.69300214 </i>
    <i name="e_0_energy">    -21.69300214 </i>
   </energy>
  </scstep>
  <scstep>
   <time name="dav">   14.97   15.16</time>
   <time name="total">   16.34   16.53</time>
   <dipole>
    <v name="dipole">      0.00000000       0.00000000       0.25218361 </v>
    <i name="Tr[quadrupol]">    -55.61906904 </i>
    <i name="Echarged">      0.00000000 </i>
    <i name="Edipol_quadrupol">      0.00000000 </i>
    <i name="Eion">      0.00000000 </i>
   </dipole>
   <energy>
    <i name="e_fr_energy">    -21.69295951 </i>
    <i name="e_wo_entrp">    -21.69295951 </i>
    <i name="e_0_energy">    -21.69295951 </i>
   </energy>
  </scstep>
  <scstep>
   <time name="dav">   12.30   12.33</time>
   <time name="total">   13.67   13.70</time>
   <dipole>
    <v name="dipole">      0.00000000       0.00000000       0.25214251 </v>
    <i name="Tr[quadrupol]">    -55.61897326 </i>
    <i name="Echarged">      0.00000000 </i>
    <i name="Edipol_quadrupol">      0.00000000 </i>
    <i name="Eion">      0.00000000 </i>
   </dipole>
   <energy>
    <i name="e_fr_energy">    -21.69295222 </i>
    <i name="e_wo_entrp">    -21.69295222 </i>
    <i name="e_0_energy">    -21.69295222 </i>
   </energy>
  </scstep>
  <scstep>
   <time name="dav">   12.37   12.37</time>
   <time name="total">   13.73   13.74</time>
   <dipole>
    <v name="dipole">      0.00000000       0.00000000       0.25213180 </v>
    <i name="Tr[quadrupol]">    -55.61896588 </i>
    <i name="Echarged">      0.00000000 </i>
    <i name="Edipol_quadrupol">      0.00000000 </i>
    <i name="Eion">      0.00000000 </i>
   </dipole>
   <energy>
    <i name="e_fr_energy">    -21.69295044 </i>
    <i name="e_wo_entrp">    -21.69295044 </i>
    <i name="e_0_energy">    -21.69295044 </i>
   </energy>
  </scstep>
  <scstep>
   <time name="dav">   12.46   12.63</time>
   <time name="total">   13.81   13.99</time>
   <dipole>
    <v name="dipole">      0.00000000       0.00000000       0.25211546 </v>
    <i name="Tr[quadrupol]">    -55.61892108 </i>
    <i name="Echarged">      0.00000000 </i>
    <i name="Edipol_quadrupol">      0.00000000 </i>
    <i name="Eion">      0.00000000 </i>
   </dipole>
   <energy>
    <i name="e_fr_energy">    -21.69294747 </i>
    <i name="e_wo_entrp">    -21.69294747 </i>
    <i name="e_0_energy">    -21.69294747 </i>
   </energy>
  </scstep>
  <scstep>
   <time name="dav">   12.03   12.03</time>
   <time name="total">   13.39   13.39</time>
   <dipole>
    <v name="dipole">      0.00000000       0.00000000       0.25211640 </v>
    <i name="Tr[quadrupol]">    -55.61889326 </i>
    <i name="Echarged">      0.00000000 </i>
    <i name="Edipol_quadrupol">      0.00000000 </i>
    <i name="Eion">      0.00000000 </i>
   </dipole>
   <energy>
    <i name="e_fr_energy">    -21.69294767 </i>
    <i name="e_wo_entrp">    -21.69294767 </i>
    <i name="e_0_energy">    -21.69294767 </i>
   </energy>
  </scstep>
  <scstep>
   <time name="dav">   12.69   12.69</time>
   <time name="total">   14.03   14.12</time>
   <dipole>
    <v name="dipole">      0.00000000       0.00000000       0.25211834 </v>
    <i name="Tr[quadrupol]">    -55.61889412 </i>
    <i name="Echarged">      0.00000000 </i>
    <i name="Edipol_quadrupol">      0.00000000 </i>
    <i name="Eion">      0.00000000 </i>
   </dipole>
   <energy>
    <i name="e_fr_energy">    -21.69294804 </i>
    <i name="e_wo_entrp">    -21.69294804 </i>
    <i name="e_0_energy">    -21.69294804 </i>
   </energy>
  </scstep>
  <scstep>
   <time name="dav">   11.54   11.55</time>
   <time name="total">   11.84   11.86</time>
   <dipole>
    <v name="dipole">      0.00000000       0.00000000       0.25211841 </v>
    <i name="Tr[quadrupol]">    -55.61889753 </i>
    <i name="Echarged">      0.00000000 </i>
    <i name="Edipol_quadrupol">      0.00000000 </i>
    <i name="Eion">      0.00000000 </i>
   </dipole>
   <energy>
    <i name="alphaZ">     64.53052995 </i>
    <i name="ewald">  11561.09611740 </i>
    <i name="hartreedc"> -13128.07552769 </i>
    <i name="XCdc">     61.71865615 </i>
    <i name="pawpsdc">   1158.60274136 </i>
    <i name="pawaedc">  -1137.35629670 </i>
    <i name="eentropy">     -0.00000000 </i>
    <i name="bandstr">   -440.15334503 </i>
    <i name="atom">   1837.94417650 </i>
    <i name="e_fr_energy">    -21.69294805 </i>
    <i name="e_wo_entrp">    -21.69294805 </i>
    <i name="e_0_energy">    -21.69294805 </i>
   </energy>
  </scstep>
  <structure>
   <crystal>
    <varray name="basis" >
     <v>       1.61415312      -2.79579451       0.00000000 </v>
     <v>       1.61415312       2.79579451       0.00000000 </v>
     <v>       0.00000000       0.00000000      34.96267827 </v>
    </varray>
    <i name="volume">    315.56197699 </i>
    <varray name="rec_basis" >
     <v>       0.30975996      -0.17884004       0.00000000 </v>
     <v>       0.30975996       0.17884004       0.00000000 </v>
     <v>       0.00000000       0.00000000       0.02860193 </v>
    </varray>
   </crystal>
   <varray name="positions" >
    <v>       0.66666700       0.33333300       0.10664700 </v>
    <v>       0.33333300       0.66666700       0.06198962 </v>
    <v>       0.33333300       0.66666700       0.15130538 </v>
   </varray>
  </structure>
  <varray name="forces" >
   <v>       0.00000000      -0.00000000       0.00000000 </v>
   <v>      -0.00000000       0.00000000       0.19228496 </v>
   <v>       0.00000000       0.00000000      -0.19228496 </v>
  </varray>
  <varray name="stress" >
   <v>      -6.09067238       0.00000000       0.00000000 </v>
   <v>      -0.00000000      -6.09066927       0.00000000 </v>
   <v>       0.00000000       0.00000000      -1.03997990 </v>
  </varray>
  <energy>
   <i name="e_fr_energy">    -21.69294805 </i>
   <i name="e_wo_entrp">    -21.69294805 </i>
   <i name="e_0_energy">     -0.00000000 </i>
  </energy>
  <time name="totalsc">  651.00  655.82</time>
  <eigenvalues>
   <array>
    <dimension dim="1">band</dimension>
    <dimension dim="2">kpoint</dimension>
    <dimension dim="3">spin</dimension>
    <field>eigene</field>
    <field>occ</field>
    <set>
     <set comment="spin 1">
      <set comment="kpoint 1">
       <r>  -40.9341    1.0000 </r>
       <r>  -40.7809    1.0000 </r>
       <r>  -40.7809    1.0000 </r>
       <r>  -19.8348    1.0000 </r>
       <r>  -18.4914    1.0000 </r>
       <r>  -11.3325    1.0000 </r>
       <r>   -8.4931    1.0000 </r>
       <r>   -8.4931    1.0000 </r>
       <r>   -7.5002    1.0000 </r>
       <r>   -7.4029    1.0000 </r>
       <r>   -7.4029    1.0000 </r>
       <r>   -5.7557    1.0000 </r>
       <r>   -3.2624    0.0000 </r>
       <r>   -3.2623    0.0000 </r>
       <r>   -2.9197    0.0000 </r>
       <r>   -2.9197    0.0000 </r>
       <r>   -0.0044    0.0000 </r>
       <r>    0.5455    0.0000 </r>
       <r>    1.7016    0.0000 </r>
       <r>    2.0191    0.0000 </r>
       <r>    2.3960    0.0000 </r>
       <r>    2.9604    0.0000 </r>
       <r>    3.0278    0.0000 </r>
       <r>    3.4926    0.0000 </r>
      </set>
      <set comment="kpoint 2">
       <r>  -40.9330    1.0000 </r>
       <r>  -40.7864    1.0000 </r>
       <r>  -40.7821    1.0000 </r>
       <r>  -19.8108    1.0000 </r>
       <r>  -18.4811    1.0000 </r>
       <r>  -11.3042    1.0000 </r>
       <r>   -8.5506    1.0000 </r>
       <r>   -8.4681    1.0000 </r>
       <r>   -7.7389    1.0000 </r>
       <r>   -7.4429    1.0000 </r>
       <r>   -7.1999    1.0000 </r>
       <r>   -5.7699    1.0000 </r>
       <r>   -3.3035    0.0000 </r>
       <r>   -3.2307    0.0000 </r>
       <r>   -2.9856    0.0000 </r>
       <r>   -2.9351    0.0000 </r>
       <r>    0.0898    0.0000 </r>
       <r>    0.6080    0.0000 </r>
       <r>    1.7357    0.0000 </r>
       <r>    2.0516    0.0000 </r>
       <r>    2.4292    0.0000 </r>
       <r>    2.9980    0.0000 </r>
       <r>    3.1452    0.0000 </r>
       <r>    3.5252    0.0000 </r>
      </set>
      <set comment="kpoint 3">
       <r>  -40.9299    1.0000 </r>
       <r>  -40.8026    1.0000 </r>
       <r>  -40.7858    1.0000 </r>
       <r>  -19.7396    1.0000 </r>
       <r>  -18.4506    1.0000 </r>
       <r>  -11.2220    1.0000 </r>
       <r>   -8.7121    1.0000 </r>
       <r>   -8.3949    1.0000 </r>
       <r>   -8.0385    1.0000 </r>
       <r>   -7.5543    1.0000 </r>
       <r>   -7.0154    1.0000 </r>
       <r>   -5.8181    1.0000 </r>
       <r>   -3.3996    0.0000 </r>
       <r>   -3.1830    0.0000 </r>
       <r>   -3.1463    0.0000 </r>
       <r>   -2.9382    0.0000 </r>
       <r>    0.3102    0.0000 </r>
       <r>    0.8213    0.0000 </r>
       <r>    1.8378    0.0000 </r>
       <r>    2.1464    0.0000 </r>
       <r>    2.5279    0.0000 </r>
       <r>    3.0980    0.0000 </r>
       <r>    3.4767    0.0000 </r>
       <r>    3.6229    0.0000 </r>
      </set>
      <set comment="kpoint 4">
       <r>  -40.9249    1.0000 </r>
       <r>  -40.8283    1.0000 </r>
       <r>  -40.7917    1.0000 </r>
       <r>  -19.6244    1.0000 </r>
       <r>  -18.4009    1.0000 </r>
       <r>  -11.0952    1.0000 </r>
       <r>   -8.9487    1.0000 </r>
       <r>   -8.3487    1.0000 </r>
       <r>   -8.2800    1.0000 </r>
       <r>   -7.7151    1.0000 </r>
       <r>   -6.9175    1.0000 </r>
       <r>   -5.9146    1.0000 </r>
       <r>   -3.5026    0.0000 </r>
       <r>   -3.3088    0.0000 </r>
       <r>   -3.2355    0.0000 </r>
       <r>   -2.8225    0.0000 </r>
       <r>    0.5493    0.0000 </r>
       <r>    1.2042    0.0000 </r>
       <r>    2.0088    0.0000 </r>
       <r>    2.3024    0.0000 </r>
       <r>    2.6912    0.0000 </r>
       <r>    3.2607    0.0000 </r>
       <r>    3.7790    0.0000 </r>
       <r>    3.9167    0.0000 </r>
      </set>
      <set comment="kpoint 5">
       <r>  -40.9185    1.0000 </r>
       <r>  -40.8615    1.0000 </r>
       <r>  -40.7994    1.0000 </r>
       <r>  -19.4702    1.0000 </r>
       <r>  -18.3341    1.0000 </r>
       <r>  -10.9432    1.0000 </r>
       <r>   -9.2214    1.0000 </r>
       <r>   -8.6630    1.0000 </r>
       <r>   -8.1492    1.0000 </r>
       <r>   -7.8833    1.0000 </r>
       <r>   -6.9210    1.0000 </r>
       <r>   -6.0718    1.0000 </r>
       <r>   -3.6083    0.0000 </r>
       <r>   -3.3550    0.0000 </r>
       <r>   -3.3501    0.0000 </r>
       <r>   -2.6310    0.0000 </r>
       <r>    0.7903    0.0000 </r>
       <r>    1.6460    0.0000 </r>
       <r>    2.2484    0.0000 </r>
       <r>    2.5370    0.0000 </r>
       <r>    2.9188    0.0000 </r>
       <r>    3.4842    0.0000 </r>
       <r>    3.9300    0.0000 </r>
       <r>    4.0269    0.0000 </r>
      </set>
      <set comment="kpoint 6">
       <r>  -40.9110    1.0000 </r>
       <r>  -40.9000    1.0000 </r>
       <r>  -40.8083    1.0000 </r>
       <r>  -19.2841    1.0000 </r>
       <r>  -18.2528    1.0000 </r>
       <r>  -10.8033    1.0000 </r>
       <r>   -9.4830    1.0000 </r>
       <r>   -8.9766    1.0000 </r>
       <r>   -8.1818    1.0000 </r>
       <r>   -7.8690    1.0000 </r>
       <r>   -7.0099    1.0000 </r>
       <r>   -6.2813    1.0000 </r>
       <r>   -3.6839    0.0000 </r>
       <r>   -3.4876    0.0000 </r>
       <r>   -3.2464    0.0000 </r>
       <r>   -2.4247    0.0000 </r>
       <r>    1.0492    0.0000 </r>
       <r>    1.9875    0.0000 </r>
       <r>    2.5360    0.0000 </r>
       <r>    2.8431    0.0000 </r>
       <r>    3.2120    0.0000 </r>
       <r>    3.6519    0.0000 </r>
       <r>    3.7799    0.0000 </r>
       <r>    3.9944    0.0000 </r>
      </set>
      <set comment="kpoint 7">
       <r>  -40.9411    1.0000 </r>
       <r>  -40.9028    1.0000 </r>
       <r>  -40.8178    1.0000 </r>
       <r>  -19.0757    1.0000 </r>
       <r>  -18.1608    1.0000 </r>
       <r>  -10.7401    1.0000 </r>
       <r>   -9.6770    1.0000 </r>
       <r>   -9.2798    1.0000 </r>
       <r>   -8.3623    1.0000 </r>
       <r>   -7.6847    1.0000 </r>
       <r>   -7.1459    1.0000 </r>
       <r>   -6.5035    1.0000 </r>
       <r>   -3.6954    0.0000 </r>
       <r>   -3.6091    0.0000 </r>
       <r>   -3.0493    0.0000 </r>
       <r>   -2.2306    0.0000 </r>
       <r>    1.3208    0.0000 </r>
       <r>    2.1916    0.0000 </r>
       <r>    2.8062    0.0000 </r>
       <r>    2.9310    0.0000 </r>
       <r>    3.3824    0.0000 </r>
       <r>    3.6450    0.0000 </r>
       <r>    3.8066    0.0000 </r>
       <r>    4.1621    0.0000 </r>
      </set>
      <set comment="kpoint 8">
       <r>  -40.9818    1.0000 </r>
       <r>  -40.8948    1.0000 </r>
       <r>  -40.8274    1.0000 </r>
       <r>  -18.8574    1.0000 </r>
       <r>  -18.0627    1.0000 </r>
       <r>  -10.8104    1.0000 </r>
       <r>   -9.7875    1.0000 </r>
       <r>   -9.5404    1.0000 </r>
       <r>   -8.5431    1.0000 </r>
       <r>   -7.4817    1.0000 </r>
       <r>   -7.2908    1.0000 </r>
       <r>   -6.6790    1.0000 </r>
       <r>   -3.7050    0.0000 </r>
       <r>   -3.6509    0.0000 </r>
       <r>   -2.8071    0.0000 </r>
       <r>   -2.0629    0.0000 </r>
       <r>    1.5755    0.0000 </r>
       <r>    2.2661    0.0000 </r>
       <r>    2.5134    0.0000 </r>
       <r>    3.0135    0.0000 </r>
       <r>    3.4083    0.0000 </r>
       <r>    3.9439    0.0000 </r>
       <r>    4.0880    0.0000 </r>
       <r>    4.5744    0.0000 </r>
      </set>
      <set comment="kpoint 9">
       <r>  -41.0195    1.0000 </r>
       <r>  -40.8872    1.0000 </r>
       <r>  -40.8362    1.0000 </r>
       <r>  -18.6439    1.0000 </r>
       <r>  -17.9640    1.0000 </r>
       <r>  -10.9806    1.0000 </r>
       <r>   -9.9473    1.0000 </r>
       <r>   -9.6653    1.0000 </r>
       <r>   -8.7023    1.0000 </r>
       <r>   -7.4206    1.0000 </r>
       <r>   -7.2900    1.0000 </r>
       <r>   -6.7552    1.0000 </r>
       <r>   -3.7675    0.0000 </r>
       <r>   -3.5704    0.0000 </r>
       <r>   -2.5613    0.0000 </r>
       <r>   -1.9280    0.0000 </r>
       <r>    1.6839    0.0000 </r>
       <r>    1.9829    0.0000 </r>
       <r>    2.3544    0.0000 </r>
       <r>    2.9982    0.0000 </r>
       <r>    3.7770    0.0000 </r>
       <r>    4.1853    0.0000 </r>
       <r>    4.5090    0.0000 </r>
       <r>    5.0112    0.0000 </r>
      </set>
      <set comment="kpoint 10">
       <r>  -41.0516    1.0000 </r>
       <r>  -40.8807    1.0000 </r>
       <r>  -40.8438    1.0000 </r>
       <r>  -18.4529    1.0000 </r>
       <r>  -17.8714    1.0000 </r>
       <r>  -11.1749    1.0000 </r>
       <r>  -10.1566    1.0000 </r>
       <r>   -9.7119    1.0000 </r>
       <r>   -8.8319    1.0000 </r>
       <r>   -7.5243    1.0000 </r>
       <r>   -7.1271    1.0000 </r>
       <r>   -6.7185    1.0000 </r>
       <r>   -3.7966    0.0000 </r>
       <r>   -3.4734    0.0000 </r>
       <r>   -2.3457    0.0000 </r>
       <r>   -1.8270    0.0000 </r>
       <r>    1.2378    0.0000 </r>
       <r>    1.9985    0.0000 </r>
       <r>    2.3024    0.0000 </r>
       <r>    3.1375    0.0000 </r>
       <r>    4.1027    0.0000 </r>
       <r>    4.4338    0.0000 </r>
       <r>    4.9284    0.0000 </r>
       <r>    5.3767    0.0000 </r>
      </set>
      <set comment="kpoint 11">
       <r>  -41.0762    1.0000 </r>
       <r>  -40.8757    1.0000 </r>
       <r>  -40.8496    1.0000 </r>
       <r>  -18.3021    1.0000 </r>
       <r>  -17.7931    1.0000 </r>
       <r>  -11.3432    1.0000 </r>
       <r>  -10.3302    1.0000 </r>
       <r>   -9.7628    1.0000 </r>
       <r>   -8.9271    1.0000 </r>
       <r>   -7.5979    1.0000 </r>
       <r>   -7.0052    1.0000 </r>
       <r>   -6.6097    1.0000 </r>
       <r>   -3.8005    0.0000 </r>
       <r>   -3.3784    0.0000 </r>
       <r>   -2.1837    0.0000 </r>
       <r>   -1.7580    0.0000 </r>
       <r>    0.7411    0.0000 </r>
       <r>    2.0322    0.0000 </r>
       <r>    2.3421    0.0000 </r>
       <r>    3.2900    0.0000 </r>
       <r>    4.2055    0.0000 </r>
       <r>    4.7603    0.0000 </r>
       <r>    5.2720    0.0000 </r>
       <r>    5.8002    0.0000 </r>
      </set>
      <set comment="kpoint 12">
       <r>  -41.0916    1.0000 </r>
       <r>  -40.8726    1.0000 </r>
       <r>  -40.8533    1.0000 </r>
       <r>  -18.2061    1.0000 </r>
       <r>  -17.7392    1.0000 </r>
       <r>  -11.4558    1.0000 </r>
       <r>  -10.4416    1.0000 </r>
       <r>   -9.8079    1.0000 </r>
       <r>   -8.9853    1.0000 </r>
       <r>   -7.6413    1.0000 </r>
       <r>   -6.9307    1.0000 </r>
       <r>   -6.5008    1.0000 </r>
       <r>   -3.7933    0.0000 </r>
       <r>   -3.3059    0.0000 </r>
       <r>   -2.0859    0.0000 </r>
       <r>   -1.7183    0.0000 </r>
       <r>    0.3888    0.0000 </r>
       <r>    2.0442    0.0000 </r>
       <r>    2.4211    0.0000 </r>
       <r>    3.3479    0.0000 </r>
       <r>    4.2145    0.0000 </r>
       <r>    4.9991    0.0000 </r>
       <r>    5.4252    0.0000 </r>
       <r>    5.7266    0.0000 </r>
      </set>
      <set comment="kpoint 13">
       <r>  -41.0968    1.0000 </r>
       <r>  -40.8715    1.0000 </r>
       <r>  -40.8545    1.0000 </r>
       <r>  -18.1732    1.0000 </r>
       <r>  -17.7197    1.0000 </r>
       <r>  -11.4954    1.0000 </r>
       <r>  -10.4799    1.0000 </r>
       <r>   -9.8257    1.0000 </r>
       <r>   -9.0049    1.0000 </r>
       <r>   -7.6556    1.0000 </r>
       <r>   -6.9057    1.0000 </r>
       <r>   -6.4559    1.0000 </r>
       <r>   -3.7890    0.0000 </r>
       <r>   -3.2780    0.0000 </r>
       <r>   -2.0537    0.0000 </r>
       <r>   -1.7053    0.0000 </r>
       <r>    0.2606    0.0000 </r>
       <r>    2.0515    0.0000 </r>
       <r>    2.4574    0.0000 </r>
       <r>    3.3513    0.0000 </r>
       <r>    4.2015    0.0000 </r>
       <r>    5.1440    0.0000 </r>
       <r>    5.3482    0.0000 </r>
       <r>    5.8900    0.0000 </r>
      </set>
      <set comment="kpoint 14">
       <r>  -40.9309    1.0000 </r>
       <r>  -40.7972    1.0000 </r>
       <r>  -40.7847    1.0000 </r>
       <r>  -19.7632    1.0000 </r>
       <r>  -18.4607    1.0000 </r>
       <r>  -11.2489    1.0000 </r>
       <r>   -8.6596    1.0000 </r>
       <r>   -8.4195    1.0000 </r>
       <r>   -7.9535    1.0000 </r>
       <r>   -7.5266    1.0000 </r>
       <r>   -7.0521    1.0000 </r>
       <r>   -5.8011    1.0000 </r>
       <r>   -3.3748    0.0000 </r>
       <r>   -3.1882    0.0000 </r>
       <r>   -3.0983    0.0000 </r>
       <r>   -2.9449    0.0000 </r>
       <r>    0.2464    0.0000 </r>
       <r>    0.7468    0.0000 </r>
       <r>    1.8038    0.0000 </r>
       <r>    2.1152    0.0000 </r>
       <r>    2.4951    0.0000 </r>
       <r>    3.0651    0.0000 </r>
       <r>    3.3721    0.0000 </r>
       <r>    3.5902    0.0000 </r>
      </set>
      <set comment="kpoint 15">
       <r>  -40.9269    1.0000 </r>
       <r>  -40.8179    1.0000 </r>
       <r>  -40.7897    1.0000 </r>
       <r>  -19.6700    1.0000 </r>
       <r>  -18.4206    1.0000 </r>
       <r>  -11.1440    1.0000 </r>
       <r>   -8.8572    1.0000 </r>
       <r>   -8.3289    1.0000 </r>
       <r>   -8.2247    1.0000 </r>
       <r>   -7.6820    1.0000 </r>
       <r>   -6.9212    1.0000 </r>
       <r>   -5.8733    1.0000 </r>
       <r>   -3.4768    0.0000 </r>
       <r>   -3.2635    0.0000 </r>
       <r>   -3.2053    0.0000 </r>
       <r>   -2.8675    0.0000 </r>
       <r>    0.4676    0.0000 </r>
       <r>    1.0560    0.0000 </r>
       <r>    1.9401    0.0000 </r>
       <r>    2.2392    0.0000 </r>
       <r>    2.6260    0.0000 </r>
       <r>    3.1960    0.0000 </r>
       <r>    3.7151    0.0000 </r>
       <r>    3.7703    0.0000 </r>
      </set>
      <set comment="kpoint 16">
       <r>  -40.9212    1.0000 </r>
       <r>  -40.8471    1.0000 </r>
       <r>  -40.7967    1.0000 </r>
       <r>  -19.5352    1.0000 </r>
       <r>  -18.3623    1.0000 </r>
       <r>  -11.0032    1.0000 </r>
       <r>   -9.1094    1.0000 </r>
       <r>   -8.5210    1.0000 </r>
       <r>   -8.2034    1.0000 </r>
       <r>   -7.8691    1.0000 </r>
       <r>   -6.8699    1.0000 </r>
       <r>   -6.0005    1.0000 </r>
       <r>   -3.5776    0.0000 </r>
       <r>   -3.3786    0.0000 </r>
       <r>   -3.3058    0.0000 </r>
       <r>   -2.6891    0.0000 </r>
       <r>    0.6982    0.0000 </r>
       <r>    1.4891    0.0000 </r>
       <r>    2.1461    0.0000 </r>
       <r>    2.4304    0.0000 </r>
       <r>    2.8213    0.0000 </r>
       <r>    3.3896    0.0000 </r>
       <r>    3.9003    0.0000 </r>
       <r>    4.0965    0.0000 </r>
      </set>
      <set comment="kpoint 17">
       <r>  -40.9142    1.0000 </r>
       <r>  -40.8826    1.0000 </r>
       <r>  -40.8054    1.0000 </r>
       <r>  -19.3649    1.0000 </r>
       <r>  -18.2881    1.0000 </r>
       <r>  -10.8533    1.0000 </r>
       <r>   -9.3742    1.0000 </r>
       <r>   -8.8230    1.0000 </r>
       <r>   -8.1765    1.0000 </r>
       <r>   -7.9450    1.0000 </r>
       <r>   -6.9107    1.0000 </r>
       <r>   -6.1854    1.0000 </r>
       <r>   -3.6760    0.0000 </r>
       <r>   -3.4292    0.0000 </r>
       <r>   -3.3501    0.0000 </r>
       <r>   -2.4791    0.0000 </r>
       <r>    0.9467    0.0000 </r>
       <r>    1.8937    0.0000 </r>
       <r>    2.4134    0.0000 </r>
       <r>    2.7142    0.0000 </r>
       <r>    3.0819    0.0000 </r>
       <r>    3.6371    0.0000 </r>
       <r>    3.8161    0.0000 </r>
       <r>    4.1143    0.0000 </r>
      </set>
      <set comment="kpoint 18">
       <r>  -40.9220    1.0000 </r>
       <r>  -40.9064    1.0000 </r>
       <r>  -40.8150    1.0000 </r>
       <r>  -19.1675    1.0000 </r>
       <r>  -18.2013    1.0000 </r>
       <r>  -10.7453    1.0000 </r>
       <r>   -9.5988    1.0000 </r>
       <r>   -9.1290    1.0000 </r>
       <r>   -8.3491    1.0000 </r>
       <r>   -7.7947    1.0000 </r>
       <r>   -7.0214    1.0000 </r>
       <r>   -6.4031    1.0000 </r>
       <r>   -3.7365    0.0000 </r>
       <r>   -3.5342    0.0000 </r>
       <r>   -3.2043    0.0000 </r>
       <r>   -2.2730    0.0000 </r>
       <r>    1.2165    0.0000 </r>
       <r>    2.1626    0.0000 </r>
       <r>    2.7109    0.0000 </r>
       <r>    2.9657    0.0000 </r>
       <r>    3.3851    0.0000 </r>
       <r>    3.5852    0.0000 </r>
       <r>    3.8548    0.0000 </r>
       <r>    4.0229    0.0000 </r>
      </set>
      <set comment="kpoint 19">
       <r>  -40.9625    1.0000 </r>
       <r>  -40.8983    1.0000 </r>
       <r>  -40.8250    1.0000 </r>
       <r>  -18.9537    1.0000 </r>
       <r>  -18.1059    1.0000 </r>
       <r>  -10.7491    1.0000 </r>
       <r>   -9.7344    1.0000 </r>
       <r>   -9.4207    1.0000 </r>
       <r>   -8.5292    1.0000 </r>
       <r>   -7.6148    1.0000 </r>
       <r>   -7.1633    1.0000 </r>
       <r>   -6.6003    1.0000 </r>
       <r>   -3.7633    0.0000 </r>
       <r>   -3.5914    0.0000 </r>
       <r>   -2.9863    0.0000 </r>
       <r>   -2.0907    0.0000 </r>
       <r>    1.4914    0.0000 </r>
       <r>    2.3102    0.0000 </r>
       <r>    2.7322    0.0000 </r>
       <r>    3.0219    0.0000 </r>
       <r>    3.3771    0.0000 </r>
       <r>    3.8248    0.0000 </r>
       <r>    3.9339    0.0000 </r>
       <r>    4.3829    0.0000 </r>
      </set>
      <set comment="kpoint 20">
       <r>  -41.0013    1.0000 </r>
       <r>  -40.8904    1.0000 </r>
       <r>  -40.8345    1.0000 </r>
       <r>  -18.7372    1.0000 </r>
       <r>  -18.0070    1.0000 </r>
       <r>  -10.8784    1.0000 </r>
       <r>   -9.8484    1.0000 </r>
       <r>   -9.6243    1.0000 </r>
       <r>   -8.6846    1.0000 </r>
       <r>   -7.4594    1.0000 </r>
       <r>   -7.2955    1.0000 </r>
       <r>   -6.7140    1.0000 </r>
       <r>   -3.7837    0.0000 </r>
       <r>   -3.5771    0.0000 </r>
       <r>   -2.7400    0.0000 </r>
       <r>   -1.9440    0.0000 </r>
       <r>    1.7232    0.0000 </r>
       <r>    2.1871    0.0000 </r>
       <r>    2.4419    0.0000 </r>
       <r>    3.0338    0.0000 </r>
       <r>    3.6038    0.0000 </r>
       <r>    4.0962    0.0000 </r>
       <r>    4.3125    0.0000 </r>
       <r>    4.8154    0.0000 </r>
      </set>
      <set comment="kpoint 21">
       <r>  -41.0358    1.0000 </r>
       <r>  -40.8834    1.0000 </r>
       <r>  -40.8431    1.0000 </r>
       <r>  -18.5342    1.0000 </r>
       <r>  -17.9106    1.0000 </r>
       <r>  -11.0651    1.0000 </r>
       <r>  -10.0588    1.0000 </r>
       <r>   -9.6848    1.0000 </r>
       <r>   -8.8099    1.0000 </r>
       <r>   -7.4605    1.0000 </r>
       <r>   -7.2817    1.0000 </r>
       <r>   -6.7097    1.0000 </r>
       <r>   -3.7946    0.0000 </r>
       <r>   -3.5114    0.0000 </r>
       <r>   -2.5004    0.0000 </r>
       <r>   -1.8394    0.0000 </r>
       <r>    1.5394    0.0000 </r>
       <r>    2.0145    0.0000 </r>
       <r>    2.3892    0.0000 </r>
       <r>    3.0941    0.0000 </r>
       <r>    3.9895    0.0000 </r>
       <r>    4.3167    0.0000 </r>
       <r>    4.7479    0.0000 </r>
       <r>    5.2241    0.0000 </r>
      </set>
      <set comment="kpoint 22">
       <r>  -41.0639    1.0000 </r>
       <r>  -40.8777    1.0000 </r>
       <r>  -40.8501    1.0000 </r>
       <r>  -18.3626    1.0000 </r>
       <r>  -17.8241    1.0000 </r>
       <r>  -11.2466    1.0000 </r>
       <r>  -10.2622    1.0000 </r>
       <r>   -9.7309    1.0000 </r>
       <r>   -8.9042    1.0000 </r>
       <r>   -7.5513    1.0000 </r>
       <r>   -7.1756    1.0000 </r>
       <r>   -6.6157    1.0000 </r>
       <r>   -3.7914    0.0000 </r>
       <r>   -3.4232    0.0000 </r>
       <r>   -2.2929    0.0000 </r>
       <r>   -1.7794    0.0000 </r>
       <r>    1.0128    0.0000 </r>
       <r>    2.0999    0.0000 </r>
       <r>    2.3873    0.0000 </r>
       <r>    3.2506    0.0000 </r>
       <r>    4.1988    0.0000 </r>
       <r>    4.6236    0.0000 </r>
       <r>    5.1070    0.0000 </r>
       <r>    5.5419    0.0000 </r>
      </set>
      <set comment="kpoint 23">
       <r>  -41.0837    1.0000 </r>
       <r>  -40.8736    1.0000 </r>
       <r>  -40.8550    1.0000 </r>
       <r>  -18.2388    1.0000 </r>
       <r>  -17.7567    1.0000 </r>
       <r>  -11.3862    1.0000 </r>
       <r>  -10.4106    1.0000 </r>
       <r>   -9.7830    1.0000 </r>
       <r>   -8.9671    1.0000 </r>
       <r>   -7.6174    1.0000 </r>
       <r>   -7.0904    1.0000 </r>
       <r>   -6.4960    1.0000 </r>
       <r>   -3.7835    0.0000 </r>
       <r>   -3.3356    0.0000 </r>
       <r>   -2.1343    0.0000 </r>
       <r>   -1.7604    0.0000 </r>
       <r>    0.5757    0.0000 </r>
       <r>    2.1393    0.0000 </r>
       <r>    2.4637    0.0000 </r>
       <r>    3.3506    0.0000 </r>
       <r>    4.2419    0.0000 </r>
       <r>    4.8810    0.0000 </r>
       <r>    5.3380    0.0000 </r>
       <r>    5.5345    0.0000 </r>
      </set>
      <set comment="kpoint 24">
       <r>  -41.0939    1.0000 </r>
       <r>  -40.8715    1.0000 </r>
       <r>  -40.8576    1.0000 </r>
       <r>  -18.1743    1.0000 </r>
       <r>  -17.7191    1.0000 </r>
       <r>  -11.4618    1.0000 </r>
       <r>  -10.4883    1.0000 </r>
       <r>   -9.8174    1.0000 </r>
       <r>   -8.9987    1.0000 </r>
       <r>   -7.6510    1.0000 </r>
       <r>   -7.0442    1.0000 </r>
       <r>   -6.4145    1.0000 </r>
       <r>   -3.7788    0.0000 </r>
       <r>   -3.2781    0.0000 </r>
       <r>   -2.0416    0.0000 </r>
       <r>   -1.7661    0.0000 </r>
       <r>    0.3278    0.0000 </r>
       <r>    2.1640    0.0000 </r>
       <r>    2.5329    0.0000 </r>
       <r>    3.3659    0.0000 </r>
       <r>    4.2242    0.0000 </r>
       <r>    5.0390    0.0000 </r>
       <r>    5.2813    0.0000 </r>
       <r>    5.8866    0.0000 </r>
      </set>
      <set comment="kpoint 25">
       <r>  -40.9221    1.0000 </r>
       <r>  -40.8418    1.0000 </r>
       <r>  -40.7962    1.0000 </r>
       <r>  -19.5572    1.0000 </r>
       <r>  -18.3718    1.0000 </r>
       <r>  -11.0240    1.0000 </r>
       <r>   -9.0678    1.0000 </r>
       <r>   -8.4574    1.0000 </r>
       <r>   -8.2251    1.0000 </r>
       <r>   -7.8924    1.0000 </r>
       <r>   -6.8348    1.0000 </r>
       <r>   -5.9763    1.0000 </r>
       <r>   -3.5768    0.0000 </r>
       <r>   -3.3887    0.0000 </r>
       <r>   -3.2920    0.0000 </r>
       <r>   -2.6979    0.0000 </r>
       <r>    0.6684    0.0000 </r>
       <r>    1.4359    0.0000 </r>
       <r>    2.1115    0.0000 </r>
       <r>    2.3949    0.0000 </r>
       <r>    2.7889    0.0000 </r>
       <r>    3.3579    0.0000 </r>
       <r>    3.8737    0.0000 </r>
       <r>    4.1563    0.0000 </r>
      </set>
      <set comment="kpoint 26">
       <r>  -40.9159    1.0000 </r>
       <r>  -40.8726    1.0000 </r>
       <r>  -40.8049    1.0000 </r>
       <r>  -19.4063    1.0000 </r>
       <r>  -18.3060    1.0000 </r>
       <r>  -10.8812    1.0000 </r>
       <r>   -9.3079    1.0000 </r>
       <r>   -8.7041    1.0000 </r>
       <r>   -8.2313    1.0000 </r>
       <r>   -8.0081    1.0000 </r>
       <r>   -6.8120    1.0000 </r>
       <r>   -6.1326    1.0000 </r>
       <r>   -3.6815    0.0000 </r>
       <r>   -3.4405    0.0000 </r>
       <r>   -3.3956    0.0000 </r>
       <r>   -2.4816    0.0000 </r>
       <r>    0.8999    0.0000 </r>
       <r>    1.8615    0.0000 </r>
       <r>    2.3499    0.0000 </r>
       <r>    2.6337    0.0000 </r>
       <r>    3.0165    0.0000 </r>
       <r>    3.5805    0.0000 </r>
       <r>    3.9178    0.0000 </r>
       <r>    4.1117    0.0000 </r>
      </set>
      <set comment="kpoint 27">
       <r>  -40.9089    1.0000 </r>
       <r>  -40.9079    1.0000 </r>
       <r>  -40.8150    1.0000 </r>
       <r>  -19.2243    1.0000 </r>
       <r>  -18.2260    1.0000 </r>
       <r>  -10.7535    1.0000 </r>
       <r>   -9.5312    1.0000 </r>
       <r>   -8.9798    1.0000 </r>
       <r>   -8.4424    1.0000 </r>
       <r>   -7.8873    1.0000 </r>
       <r>   -6.8684    1.0000 </r>
       <r>   -6.3289    1.0000 </r>
       <r>   -3.7774    0.0000 </r>
       <r>   -3.4838    0.0000 </r>
       <r>   -3.3679    0.0000 </r>
       <r>   -2.2612    0.0000 </r>
       <r>    1.1620    0.0000 </r>
       <r>    2.1967    0.0000 </r>
       <r>    2.6322    0.0000 </r>
       <r>    2.9500    0.0000 </r>
       <r>    3.3098    0.0000 </r>
       <r>    3.6710    0.0000 </r>
       <r>    3.8675    0.0000 </r>
       <r>    4.1532    0.0000 </r>
      </set>
      <set comment="kpoint 28">
       <r>  -40.9462    1.0000 </r>
       <r>  -40.9008    1.0000 </r>
       <r>  -40.8259    1.0000 </r>
       <r>  -19.0209    1.0000 </r>
       <r>  -18.1353    1.0000 </r>
       <r>  -10.7043    1.0000 </r>
       <r>   -9.6821    1.0000 </r>
       <r>   -9.2807    1.0000 </r>
       <r>   -8.6298    1.0000 </r>
       <r>   -7.7499    1.0000 </r>
       <r>   -6.9835    1.0000 </r>
       <r>   -6.5243    1.0000 </r>
       <r>   -3.8389    0.0000 </r>
       <r>   -3.5278    0.0000 </r>
       <r>   -3.2042    0.0000 </r>
       <r>   -2.0629    0.0000 </r>
       <r>    1.4466    0.0000 </r>
       <r>    2.4055    0.0000 </r>
       <r>    2.9101    0.0000 </r>
       <r>    3.0087    0.0000 </r>
       <r>    3.4997    0.0000 </r>
       <r>    3.7409    0.0000 </r>
       <r>    3.9233    0.0000 </r>
       <r>    4.2522    0.0000 </r>
      </set>
      <set comment="kpoint 29">
       <r>  -40.9838    1.0000 </r>
       <r>  -40.8929    1.0000 </r>
       <r>  -40.8368    1.0000 </r>
       <r>  -18.8081    1.0000 </r>
       <r>  -18.0383    1.0000 </r>
       <r>  -10.7795    1.0000 </r>
       <r>   -9.7626    1.0000 </r>
       <r>   -9.5550    1.0000 </r>
       <r>   -8.7678    1.0000 </r>
       <r>   -7.6459    1.0000 </r>
       <r>   -7.1239    1.0000 </r>
       <r>   -6.6557    1.0000 </r>
       <r>   -3.8541    0.0000 </r>
       <r>   -3.5344    0.0000 </r>
       <r>   -2.9829    0.0000 </r>
       <r>   -1.9037    0.0000 </r>
       <r>    1.7291    0.0000 </r>
       <r>    2.4731    0.0000 </r>
       <r>    2.6029    0.0000 </r>
       <r>    3.1723    0.0000 </r>
       <r>    3.5319    0.0000 </r>
       <r>    4.0404    0.0000 </r>
       <r>    4.1729    0.0000 </r>
       <r>    4.6581    0.0000 </r>
      </set>
      <set comment="kpoint 30">
       <r>  -41.0186    1.0000 </r>
       <r>  -40.8856    1.0000 </r>
       <r>  -40.8469    1.0000 </r>
       <r>  -18.6006    1.0000 </r>
       <r>  -17.9405    1.0000 </r>
       <r>  -10.9387    1.0000 </r>
       <r>   -9.9580    1.0000 </r>
       <r>   -9.6522    1.0000 </r>
       <r>   -8.8639    1.0000 </r>
       <r>   -7.5847    1.0000 </r>
       <r>   -7.2639    1.0000 </r>
       <r>   -6.6746    1.0000 </r>
       <r>   -3.8258    0.0000 </r>
       <r>   -3.5120    0.0000 </r>
       <r>   -2.7406    0.0000 </r>
       <r>   -1.7949    0.0000 </r>
       <r>    1.8546    0.0000 </r>
       <r>    2.1182    0.0000 </r>
       <r>    2.5762    0.0000 </r>
       <r>    3.1802    0.0000 </r>
       <r>    3.8717    0.0000 </r>
       <r>    4.2726    0.0000 </r>
       <r>    4.5880    0.0000 </r>
       <r>    5.0844    0.0000 </r>
      </set>
      <set comment="kpoint 31">
       <r>  -41.0484    1.0000 </r>
       <r>  -40.8794    1.0000 </r>
       <r>  -40.8556    1.0000 </r>
       <r>  -18.4155    1.0000 </r>
       <r>  -17.8486    1.0000 </r>
       <r>  -11.1149    1.0000 </r>
       <r>  -10.1982    1.0000 </r>
       <r>   -9.6869    1.0000 </r>
       <r>   -8.9271    1.0000 </r>
       <r>   -7.5575    1.0000 </r>
       <r>   -7.3668    1.0000 </r>
       <r>   -6.5971    1.0000 </r>
       <r>   -3.7800    0.0000 </r>
       <r>   -3.4593    0.0000 </r>
       <r>   -2.5047    0.0000 </r>
       <r>   -1.7435    0.0000 </r>
       <r>    1.3643    0.0000 </r>
       <r>    2.2421    0.0000 </r>
       <r>    2.5770    0.0000 </r>
       <r>    3.2778    0.0000 </r>
       <r>    4.1989    0.0000 </r>
       <r>    4.5100    0.0000 </r>
       <r>    4.9731    0.0000 </r>
       <r>    5.2805    0.0000 </r>
      </set>
      <set comment="kpoint 32">
       <r>  -41.0711    1.0000 </r>
       <r>  -40.8745    1.0000 </r>
       <r>  -40.8623    1.0000 </r>
       <r>  -18.2698    1.0000 </r>
       <r>  -17.7708    1.0000 </r>
       <r>  -11.2656    1.0000 </r>
       <r>  -10.3896    1.0000 </r>
       <r>   -9.7402    1.0000 </r>
       <r>   -8.9654    1.0000 </r>
       <r>   -7.5938    1.0000 </r>
       <r>   -7.3758    1.0000 </r>
       <r>   -6.4764    1.0000 </r>
       <r>   -3.7566    0.0000 </r>
       <r>   -3.3693    0.0000 </r>
       <r>   -2.2926    0.0000 </r>
       <r>   -1.7505    0.0000 </r>
       <r>    0.8675    0.0000 </r>
       <r>    2.3664    0.0000 </r>
       <r>    2.6405    0.0000 </r>
       <r>    3.3903    0.0000 </r>
       <r>    4.2974    0.0000 </r>
       <r>    4.7415    0.0000 </r>
       <r>    5.0780    0.0000 </r>
       <r>    5.4151    0.0000 </r>
      </set>
      <set comment="kpoint 33">
       <r>  -41.0853    1.0000 </r>
       <r>  -40.8715    1.0000 </r>
       <r>  -40.8665    1.0000 </r>
       <r>  -18.1773    1.0000 </r>
       <r>  -17.7173    1.0000 </r>
       <r>  -11.3660    1.0000 </r>
       <r>  -10.5107    1.0000 </r>
       <r>   -9.7901    1.0000 </r>
       <r>   -8.9855    1.0000 </r>
       <r>   -7.6472    1.0000 </r>
       <r>   -7.3437    1.0000 </r>
       <r>   -6.3681    1.0000 </r>
       <r>   -3.7610    0.0000 </r>
       <r>   -3.2738    0.0000 </r>
       <r>   -2.1171    0.0000 </r>
       <r>   -1.8067    0.0000 </r>
       <r>    0.5170    0.0000 </r>
       <r>    2.4494    0.0000 </r>
       <r>    2.7420    0.0000 </r>
       <r>    3.4181    0.0000 </r>
       <r>    4.2599    0.0000 </r>
       <r>    4.7644    0.0000 </r>
       <r>    5.2126    0.0000 </r>
       <r>    5.8123    0.0000 </r>
      </set>
      <set comment="kpoint 34">
       <r>  -41.0902    1.0000 </r>
       <r>  -40.8705    1.0000 </r>
       <r>  -40.8679    1.0000 </r>
       <r>  -18.1457    1.0000 </r>
       <r>  -17.6980    1.0000 </r>
       <r>  -11.4012    1.0000 </r>
       <r>  -10.5520    1.0000 </r>
       <r>   -9.8101    1.0000 </r>
       <r>   -8.9917    1.0000 </r>
       <r>   -7.6681    1.0000 </r>
       <r>   -7.3290    1.0000 </r>
       <r>   -6.3242    1.0000 </r>
       <r>   -3.7673    0.0000 </r>
       <r>   -3.2322    0.0000 </r>
       <r>   -2.0230    0.0000 </r>
       <r>   -1.8621    0.0000 </r>
       <r>    0.3894    0.0000 </r>
       <r>    2.4852    0.0000 </r>
       <r>    2.7910    0.0000 </r>
       <r>    3.4077    0.0000 </r>
       <r>    4.2163    0.0000 </r>
       <r>    4.7720    0.0000 </r>
       <r>    5.3101    0.0000 </r>
       <r>    5.9494    0.0000 </r>
      </set>
      <set comment="kpoint 35">
       <r>  -40.9094    1.0000 </r>
       <r>  -40.9031    1.0000 </r>
       <r>  -40.8154    1.0000 </r>
       <r>  -19.2436    1.0000 </r>
       <r>  -18.2343    1.0000 </r>
       <r>  -10.7570    1.0000 </r>
       <r>   -9.5044    1.0000 </r>
       <r>   -8.8994    1.0000 </r>
       <r>   -8.5116    1.0000 </r>
       <r>   -7.9229    1.0000 </r>
       <r>   -6.8017    1.0000 </r>
       <r>   -6.3011    1.0000 </r>
       <r>   -3.7938    0.0000 </r>
       <r>   -3.4711    0.0000 </r>
       <r>   -3.4330    0.0000 </r>
       <r>   -2.2511    0.0000 </r>
       <r>    1.1450    0.0000 </r>
       <r>    2.2232    0.0000 </r>
       <r>    2.6054    0.0000 </r>
       <r>    2.9275    0.0000 </r>
       <r>    3.2775    0.0000 </r>
       <r>    3.7246    0.0000 </r>
       <r>    3.8449    0.0000 </r>
       <r>    4.2934    0.0000 </r>
      </set>
      <set comment="kpoint 36">
       <r>  -40.9365    1.0000 </r>
       <r>  -40.9020    1.0000 </r>
       <r>  -40.8276    1.0000 </r>
       <r>  -19.0554    1.0000 </r>
       <r>  -18.1501    1.0000 </r>
       <r>  -10.6810    1.0000 </r>
       <r>   -9.6473    1.0000 </r>
       <r>   -9.1531    1.0000 </r>
       <r>   -8.7549    1.0000 </r>
       <r>   -7.8313    1.0000 </r>
       <r>   -6.8585    1.0000 </r>
       <r>   -6.4774    1.0000 </r>
       <r>   -3.8834    0.0000 </r>
       <r>   -3.4972    0.0000 </r>
       <r>   -3.3490    0.0000 </r>
       <r>   -2.0361    0.0000 </r>
       <r>    1.4249    0.0000 </r>
       <r>    2.4941    0.0000 </r>
       <r>    2.8960    0.0000 </r>
       <r>    3.1132    0.0000 </r>
       <r>    3.5580    0.0000 </r>
       <r>    3.7041    0.0000 </r>
       <r>    4.0649    0.0000 </r>
       <r>    4.2066    0.0000 </r>
      </set>
      <set comment="kpoint 37">
       <r>  -40.9706    1.0000 </r>
       <r>  -40.8945    1.0000 </r>
       <r>  -40.8404    1.0000 </r>
       <r>  -18.8523    1.0000 </r>
       <r>  -18.0573    1.0000 </r>
       <r>  -10.7072    1.0000 </r>
       <r>   -9.7046    1.0000 </r>
       <r>   -9.4635    1.0000 </r>
       <r>   -8.8918    1.0000 </r>
       <r>   -7.7908    1.0000 </r>
       <r>   -6.9663    1.0000 </r>
       <r>   -6.6121    1.0000 </r>
       <r>   -3.9148    0.0000 </r>
       <r>   -3.4998    0.0000 </r>
       <r>   -3.1854    0.0000 </r>
       <r>   -1.8597    0.0000 </r>
       <r>    1.7246    0.0000 </r>
       <r>    2.6653    0.0000 </r>
       <r>    2.8281    0.0000 </r>
       <r>    3.2288    0.0000 </r>
       <r>    3.6641    0.0000 </r>
       <r>    4.0160    0.0000 </r>
       <r>    4.1177    0.0000 </r>
       <r>    4.5493    0.0000 </r>
      </set>
      <set comment="kpoint 38">
       <r>  -41.0032    1.0000 </r>
       <r>  -40.8872    1.0000 </r>
       <r>  -40.8529    1.0000 </r>
       <r>  -18.6475    1.0000 </r>
       <r>  -17.9607    1.0000 </r>
       <r>  -10.8250    1.0000 </r>
       <r>   -9.8574    1.0000 </r>
       <r>   -9.6209    1.0000 </r>
       <r>   -8.9606    1.0000 </r>
       <r>   -7.8052    1.0000 </r>
       <r>   -7.1106    1.0000 </r>
       <r>   -6.6517    1.0000 </r>
       <r>   -3.8741    0.0000 </r>
       <r>   -3.4927    0.0000 </r>
       <r>   -2.9746    0.0000 </r>
[...]
       <r>     4.6250     1.3982    22.2692 </r>
       <r>     4.6354     1.3655    22.2835 </r>
       <r>     4.6459     1.3403    22.2975 </r>
       <r>     4.6563     1.3167    22.3112 </r>
       <r>     4.6667     1.2865    22.3246 </r>
       <r>     4.6771     1.2471    22.3376 </r>
       <r>     4.6876     1.2068    22.3502 </r>
       <r>     4.6980     1.1824    22.3625 </r>
       <r>     4.7084     1.1912    22.3750 </r>
       <r>     4.7189     1.2412    22.3879 </r>
       <r>     4.7293     1.3246    22.4017 </r>
       <r>     4.7397     1.4185    22.4165 </r>
       <r>     4.7502     1.4937    22.4321 </r>
       <r>     4.7606     1.5262    22.4480 </r>
       <r>     4.7710     1.5079    22.4637 </r>
       <r>     4.7814     1.4492    22.4789 </r>
       <r>     4.7919     1.3740    22.4932 </r>
       <r>     4.8023     1.3079    22.5068 </r>
       <r>     4.8127     1.2677    22.5201 </r>
       <r>     4.8232     1.2559    22.5332 </r>
       <r>     4.8336     1.2627    22.5463 </r>
       <r>     4.8440     1.2733    22.5596 </r>
       <r>     4.8545     1.2756    22.5729 </r>
       <r>     4.8649     1.2642    22.5861 </r>
       <r>     4.8753     1.2417    22.5990 </r>
       <r>     4.8857     1.2164    22.6117 </r>
       <r>     4.8962     1.1985    22.6242 </r>
       <r>     4.9066     1.1967    22.6367 </r>
       <r>     4.9170     1.2146    22.6494 </r>
       <r>     4.9275     1.2485    22.6624 </r>
       <r>     4.9379     1.2886    22.6758 </r>
       <r>     4.9483     1.3234    22.6896 </r>
       <r>     4.9587     1.3445    22.7037 </r>
       <r>     4.9692     1.3504    22.7177 </r>
       <r>     4.9796     1.3452    22.7318 </r>
       <r>     4.9900     1.3362    22.7457 </r>
       <r>     5.0005     1.3292    22.7596 </r>
       <r>     5.0109     1.3265    22.7734 </r>
       <r>     5.0213     1.3282    22.7873 </r>
       <r>     5.0318     1.3340    22.8012 </r>
       <r>     5.0422     1.3450    22.8152 </r>
       <r>     5.0526     1.3631    22.8294 </r>
       <r>     5.0630     1.3880    22.8439 </r>
       <r>     5.0735     1.4149    22.8587 </r>
       <r>     5.0839     1.4337    22.8736 </r>
       <r>     5.0943     1.4318    22.8885 </r>
       <r>     5.1048     1.3993    22.9031 </r>
       <r>     5.1152     1.3340    22.9171 </r>
       <r>     5.1256     1.2438    22.9300 </r>
       <r>     5.1361     1.1458    22.9420 </r>
       <r>     5.1465     1.0613    22.9530 </r>
       <r>     5.1569     1.0095    22.9636 </r>
       <r>     5.1673     1.0010    22.9740 </r>
       <r>     5.1778     1.0348    22.9848 </r>
       <r>     5.1882     1.0983    22.9963 </r>
       <r>     5.1986     1.1719    23.0085 </r>
       <r>     5.2091     1.2356    23.0214 </r>
       <r>     5.2195     1.2770    23.0347 </r>
       <r>     5.2299     1.2953    23.0482 </r>
       <r>     5.2404     1.3004    23.0618 </r>
       <r>     5.2508     1.3071    23.0754 </r>
       <r>     5.2612     1.3292    23.0893 </r>
       <r>     5.2716     1.3754    23.1036 </r>
       <r>     5.2821     1.4495    23.1187 </r>
       <r>     5.2925     1.5523    23.1349 </r>
       <r>     5.3029     1.6814    23.1524 </r>
       <r>     5.3134     1.8279    23.1715 </r>
       <r>     5.3238     1.9733    23.1921 </r>
       <r>     5.3342     2.0893    23.2139 </r>
       <r>     5.3447     2.1452    23.2363 </r>
       <r>     5.3551     2.1191    23.2584 </r>
       <r>     5.3655     2.0077    23.2793 </r>
       <r>     5.3759     1.8285    23.2984 </r>
       <r>     5.3864     1.6133    23.3152 </r>
       <r>     5.3968     1.3950    23.3297 </r>
       <r>     5.4072     1.1969    23.3422 </r>
       <r>     5.4177     1.0282    23.3530 </r>
       <r>     5.4281     0.8879    23.3622 </r>
       <r>     5.4385     0.7736    23.3703 </r>
       <r>     5.4489     0.6882    23.3775 </r>
       <r>     5.4594     0.6411    23.3841 </r>
       <r>     5.4698     0.6431    23.3909 </r>
       <r>     5.4802     0.6984    23.3981 </r>
       <r>     5.4907     0.7980    23.4065 </r>
       <r>     5.5011     0.9192    23.4160 </r>
       <r>     5.5115     1.0302    23.4268 </r>
       <r>     5.5220     1.0996    23.4383 </r>
       <r>     5.5324     1.1064    23.4498 </r>
       <r>     5.5428     1.0462    23.4607 </r>
       <r>     5.5532     0.9317    23.4704 </r>
       <r>     5.5637     0.7884    23.4787 </r>
       <r>     5.5741     0.6456    23.4854 </r>
       <r>     5.5845     0.5288    23.4909 </r>
       <r>     5.5950     0.4541    23.4956 </r>
       <r>     5.6054     0.4277    23.5001 </r>
       <r>     5.6158     0.4491    23.5048 </r>
       <r>     5.6263     0.5149    23.5102 </r>
       <r>     5.6367     0.6217    23.5166 </r>
       <r>     5.6471     0.7654    23.5246 </r>
       <r>     5.6575     0.9388    23.5344 </r>
       <r>     5.6680     1.1275    23.5462 </r>
       <r>     5.6784     1.3097    23.5598 </r>
       <r>     5.6888     1.4596    23.5751 </r>
       <r>     5.6993     1.5544    23.5913 </r>
       <r>     5.7097     1.5825    23.6078 </r>
       <r>     5.7201     1.5476    23.6239 </r>
       <r>     5.7306     1.4674    23.6392 </r>
       <r>     5.7410     1.3667    23.6535 </r>
       <r>     5.7514     1.2674    23.6667 </r>
       <r>     5.7618     1.1811    23.6790 </r>
       <r>     5.7723     1.1072    23.6906 </r>
       <r>     5.7827     1.0364    23.7014 </r>
       <r>     5.7931     0.9577    23.7114 </r>
       <r>     5.8036     0.8645    23.7204 </r>
       <r>     5.8140     0.7582    23.7283 </r>
       <r>     5.8244     0.6476    23.7350 </r>
       <r>     5.8349     0.5456    23.7407 </r>
       <r>     5.8453     0.4639    23.7456 </r>
       <r>     5.8557     0.4091    23.7498 </r>
       <r>     5.8661     0.3799    23.7538 </r>
       <r>     5.8766     0.3687    23.7576 </r>
       <r>     5.8870     0.3653    23.7614 </r>
       <r>     5.8974     0.3614    23.7652 </r>
       <r>     5.9079     0.3542    23.7689 </r>
       <r>     5.9183     0.3466    23.7725 </r>
       <r>     5.9287     0.3450    23.7761 </r>
       <r>     5.9391     0.3557    23.7798 </r>
       <r>     5.9496     0.3828    23.7838 </r>
       <r>     5.9600     0.4275    23.7883 </r>
       <r>     5.9704     0.4878    23.7934 </r>
       <r>     5.9809     0.5594    23.7992 </r>
       <r>     5.9913     0.6349    23.8058 </r>
       <r>     6.0017     0.7047    23.8132 </r>
       <r>     6.0122     0.7586    23.8211 </r>
       <r>     6.0226     0.7897    23.8293 </r>
       <r>     6.0330     0.7975    23.8376 </r>
       <r>     6.0434     0.7889    23.8459 </r>
       <r>     6.0539     0.7748    23.8540 </r>
       <r>     6.0643     0.7646    23.8619 </r>
       <r>     6.0747     0.7609    23.8699 </r>
       <r>     6.0852     0.7587    23.8778 </r>
       <r>     6.0956     0.7488    23.8856 </r>
       <r>     6.1060     0.7242    23.8931 </r>
       <r>     6.1165     0.6845    23.9003 </r>
       <r>     6.1269     0.6359    23.9069 </r>
       <r>     6.1373     0.5878    23.9130 </r>
       <r>     6.1477     0.5485    23.9188 </r>
       <r>     6.1582     0.5224    23.9242 </r>
       <r>     6.1686     0.5097    23.9295 </r>
       <r>     6.1790     0.5083    23.9348 </r>
       <r>     6.1895     0.5151    23.9402 </r>
       <r>     6.1999     0.5269    23.9457 </r>
       <r>     6.2103     0.5404    23.9513 </r>
       <r>     6.2208     0.5522    23.9571 </r>
       <r>     6.2312     0.5591    23.9629 </r>
       <r>     6.2416     0.5571    23.9687 </r>
       <r>     6.2520     0.5424    23.9744 </r>
       <r>     6.2625     0.5115    23.9797 </r>
       <r>     6.2729     0.4632    23.9846 </r>
       <r>     6.2833     0.3998    23.9887 </r>
       <r>     6.2938     0.3270    23.9921 </r>
       <r>     6.3042     0.2525    23.9948 </r>
       <r>     6.3146     0.1838    23.9967 </r>
       <r>     6.3251     0.1261    23.9980 </r>
       <r>     6.3355     0.0817    23.9989 </r>
       <r>     6.3459     0.0500    23.9994 </r>
       <r>     6.3563     0.0289    23.9997 </r>
       <r>     6.3668     0.0158    23.9998 </r>
       <r>     6.3772     0.0082    23.9999 </r>
       <r>     6.3876     0.0040    24.0000 </r>
       <r>     6.3981     0.0018    24.0000 </r>
       <r>     6.4085     0.0008    24.0000 </r>
       <r>     6.4189     0.0003    24.0000 </r>
       <r>     6.4293     0.0001    24.0000 </r>
       <r>     6.4398     0.0000    24.0000 </r>
       <r>     6.4502     0.0000    24.0000 </r>
       <r>     6.4606     0.0000    24.0000 </r>
       <r>     6.4711     0.0000    24.0000 </r>
       <r>     6.4815     0.0000    24.0000 </r>
       <r>     6.4919     0.0000    24.0000 </r>
       <r>     6.5024     0.0000    24.0000 </r>
       <r>     6.5128     0.0000    24.0000 </r>
       <r>     6.5232     0.0000    24.0000 </r>
       <r>     6.5336     0.0000    24.0000 </r>
       <r>     6.5441     0.0000    24.0000 </r>
       <r>     6.5545     0.0000    24.0000 </r>
       <r>     6.5649     0.0000    24.0000 </r>
       <r>     6.5754     0.0000    24.0000 </r>
       <r>     6.5858     0.0000    24.0000 </r>
       <r>     6.5962     0.0000    24.0000 </r>
       <r>     6.6067     0.0000    24.0000 </r>
       <r>     6.6171     0.0000    24.0000 </r>
       <r>     6.6275     0.0000    24.0000 </r>
       <r>     6.6379     0.0000    24.0000 </r>
       <r>     6.6484     0.0000    24.0000 </r>
       <r>     6.6588     0.0000    24.0000 </r>
       <r>     6.6692     0.0000    24.0000 </r>
       <r>     6.6797     0.0000    24.0000 </r>
       <r>     6.6901     0.0000    24.0000 </r>
       <r>     6.7005     0.0000    24.0000 </r>
       <r>     6.7110     0.0000    24.0000 </r>
       <r>     6.7214     0.0000    24.0000 </r>
       <r>     6.7318     0.0000    24.0000 </r>
       <r>     6.7422     0.0000    24.0000 </r>
       <r>     6.7527     0.0000    24.0000 </r>
       <r>     6.7631     0.0000    24.0000 </r>
       <r>     6.7735     0.0000    24.0000 </r>
       <r>     6.7840     0.0000    24.0000 </r>
       <r>     6.7944     0.0000    24.0000 </r>
       <r>     6.8048     0.0000    24.0000 </r>
       <r>     6.8153     0.0000    24.0000 </r>
       <r>     6.8257     0.0000    24.0000 </r>
       <r>     6.8361     0.0000    24.0000 </r>
       <r>     6.8465     0.0000    24.0000 </r>
       <r>     6.8570     0.0000    24.0000 </r>
       <r>     6.8674     0.0000    24.0000 </r>
       <r>     6.8778     0.0000    24.0000 </r>
       <r>     6.8883     0.0000    24.0000 </r>
       <r>     6.8987     0.0000    24.0000 </r>
       <r>     6.9091     0.0000    24.0000 </r>
       <r>     6.9195     0.0000    24.0000 </r>
       <r>     6.9300     0.0000    24.0000 </r>
       <r>     6.9404     0.0000    24.0000 </r>
       <r>     6.9508     0.0000    24.0000 </r>
       <r>     6.9613     0.0000    24.0000 </r>
       <r>     6.9717     0.0000    24.0000 </r>
       <r>     6.9821     0.0000    24.0000 </r>
       <r>     6.9926     0.0000    24.0000 </r>
       <r>     7.0030     0.0000    24.0000 </r>
       <r>     7.0134     0.0000    24.0000 </r>
       <r>     7.0238     0.0000    24.0000 </r>
       <r>     7.0343     0.0000    24.0000 </r>
       <r>     7.0447     0.0000    24.0000 </r>
       <r>     7.0551     0.0000    24.0000 </r>
       <r>     7.0656     0.0000    24.0000 </r>
       <r>     7.0760     0.0000    24.0000 </r>
       <r>     7.0864     0.0000    24.0000 </r>
       <r>     7.0969     0.0000    24.0000 </r>
       <r>     7.1073     0.0000    24.0000 </r>
       <r>     7.1177     0.0000    24.0000 </r>
       <r>     7.1281     0.0000    24.0000 </r>
       <r>     7.1386     0.0000    24.0000 </r>
       <r>     7.1490     0.0000    24.0000 </r>
       <r>     7.1594     0.0000    24.0000 </r>
       <r>     7.1699     0.0000    24.0000 </r>
       <r>     7.1803     0.0000    24.0000 </r>
       <r>     7.1907     0.0000    24.0000 </r>
       <r>     7.2012     0.0000    24.0000 </r>
       <r>     7.2116     0.0000    24.0000 </r>
       <r>     7.2220     0.0000    24.0000 </r>
       <r>     7.2324     0.0000    24.0000 </r>
       <r>     7.2429     0.0000    24.0000 </r>
       <r>     7.2533     0.0000    24.0000 </r>
       <r>     7.2637     0.0000    24.0000 </r>
       <r>     7.2742     0.0000    24.0000 </r>
       <r>     7.2846     0.0000    24.0000 </r>
       <r>     7.2950     0.0000    24.0000 </r>
       <r>     7.3055     0.0000    24.0000 </r>
       <r>     7.3159     0.0000    24.0000 </r>
       <r>     7.3263     0.0000    24.0000 </r>
       <r>     7.3367     0.0000    24.0000 </r>
       <r>     7.3472     0.0000    24.0000 </r>
       <r>     7.3576     0.0000    24.0000 </r>
       <r>     7.3680     0.0000    24.0000 </r>
       <r>     7.3785     0.0000    24.0000 </r>
       <r>     7.3889     0.0000    24.0000 </r>
       <r>     7.3993     0.0000    24.0000 </r>
       <r>     7.4097     0.0000    24.0000 </r>
       <r>     7.4202     0.0000    24.0000 </r>
       <r>     7.4306     0.0000    24.0000 </r>
       <r>     7.4410     0.0000    24.0000 </r>
       <r>     7.4515     0.0000    24.0000 </r>
       <r>     7.4619     0.0000    24.0000 </r>
       <r>     7.4723     0.0000    24.0000 </r>
       <r>     7.4828     0.0000    24.0000 </r>
       <r>     7.4932     0.0000    24.0000 </r>
       <r>     7.5036     0.0000    24.0000 </r>
       <r>     7.5140     0.0000    24.0000 </r>
       <r>     7.5245     0.0000    24.0000 </r>
       <r>     7.5349     0.0000    24.0000 </r>
       <r>     7.5453     0.0000    24.0000 </r>
       <r>     7.5558     0.0000    24.0000 </r>
       <r>     7.5662     0.0000    24.0000 </r>
       <r>     7.5766     0.0000    24.0000 </r>
       <r>     7.5871     0.0000    24.0000 </r>
       <r>     7.5975     0.0000    24.0000 </r>
       <r>     7.6079     0.0000    24.0000 </r>
       <r>     7.6183     0.0000    24.0000 </r>
       <r>     7.6288     0.0000    24.0000 </r>
       <r>     7.6392     0.0000    24.0000 </r>
       <r>     7.6496     0.0000    24.0000 </r>
       <r>     7.6601     0.0000    24.0000 </r>
       <r>     7.6705     0.0000    24.0000 </r>
       <r>     7.6809     0.0000    24.0000 </r>
       <r>     7.6914     0.0000    24.0000 </r>
       <r>     7.7018     0.0000    24.0000 </r>
       <r>     7.7122     0.0000    24.0000 </r>
       <r>     7.7226     0.0000    24.0000 </r>
       <r>     7.7331     0.0000    24.0000 </r>
       <r>     7.7435     0.0000    24.0000 </r>
       <r>     7.7539     0.0000    24.0000 </r>
       <r>     7.7644     0.0000    24.0000 </r>
       <r>     7.7748     0.0000    24.0000 </r>
       <r>     7.7852     0.0000    24.0000 </r>
       <r>     7.7957     0.0000    24.0000 </r>
       <r>     7.8061     0.0000    24.0000 </r>
       <r>     7.8165     0.0000    24.0000 </r>
       <r>     7.8269     0.0000    24.0000 </r>
       <r>     7.8374     0.0000    24.0000 </r>
       <r>     7.8478     0.0000    24.0000 </r>
       <r>     7.8582     0.0000    24.0000 </r>
       <r>     7.8687     0.0000    24.0000 </r>
       <r>     7.8791     0.0000    24.0000 </r>
       <r>     7.8895     0.0000    24.0000 </r>
       <r>     7.8999     0.0000    24.0000 </r>
       <r>     7.9104     0.0000    24.0000 </r>
       <r>     7.9208     0.0000    24.0000 </r>
       <r>     7.9312     0.0000    24.0000 </r>
       <r>     7.9417     0.0000    24.0000 </r>
       <r>     7.9521     0.0000    24.0000 </r>
       <r>     7.9625     0.0000    24.0000 </r>
       <r>     7.9730     0.0000    24.0000 </r>
       <r>     7.9834     0.0000    24.0000 </r>
       <r>     7.9938     0.0000    24.0000 </r>
       <r>     8.0042     0.0000    24.0000 </r>
       <r>     8.0147     0.0000    24.0000 </r>
       <r>     8.0251     0.0000    24.0000 </r>
       <r>     8.0355     0.0000    24.0000 </r>
       <r>     8.0460     0.0000    24.0000 </r>
       <r>     8.0564     0.0000    24.0000 </r>
       <r>     8.0668     0.0000    24.0000 </r>
       <r>     8.0773     0.0000    24.0000 </r>
       <r>     8.0877     0.0000    24.0000 </r>
       <r>     8.0981     0.0000    24.0000 </r>
       <r>     8.1085     0.0000    24.0000 </r>
       <r>     8.1190     0.0000    24.0000 </r>
       <r>     8.1294     0.0000    24.0000 </r>
       <r>     8.1398     0.0000    24.0000 </r>
       <r>     8.1503     0.0000    24.0000 </r>
       <r>     8.1607     0.0000    24.0000 </r>
       <r>     8.1711     0.0000    24.0000 </r>
       <r>     8.1816     0.0000    24.0000 </r>
       <r>     8.1920     0.0000    24.0000 </r>
       <r>     8.2024     0.0000    24.0000 </r>
       <r>     8.2128     0.0000    24.0000 </r>
       <r>     8.2233     0.0000    24.0000 </r>
       <r>     8.2337     0.0000    24.0000 </r>
       <r>     8.2441     0.0000    24.0000 </r>
       <r>     8.2546     0.0000    24.0000 </r>
       <r>     8.2650     0.0000    24.0000 </r>
       <r>     8.2754     0.0000    24.0000 </r>
       <r>     8.2859     0.0000    24.0000 </r>
       <r>     8.2963     0.0000    24.0000 </r>
       <r>     8.3067     0.0000    24.0000 </r>
       <r>     8.3171     0.0000    24.0000 </r>
       <r>     8.3276     0.0000    24.0000 </r>
       <r>     8.3380     0.0000    24.0000 </r>
       <r>     8.3484     0.0000    24.0000 </r>
       <r>     8.3589     0.0000    24.0000 </r>
       <r>     8.3693     0.0000    24.0000 </r>
       <r>     8.3797     0.0000    24.0000 </r>
       <r>     8.3901     0.0000    24.0000 </r>
       <r>     8.4006     0.0000    24.0000 </r>
       <r>     8.4110     0.0000    24.0000 </r>
       <r>     8.4214     0.0000    24.0000 </r>
       <r>     8.4319     0.0000    24.0000 </r>
       <r>     8.4423     0.0000    24.0000 </r>
       <r>     8.4527     0.0000    24.0000 </r>
       <r>     8.4632     0.0000    24.0000 </r>
       <r>     8.4736     0.0000    24.0000 </r>
       <r>     8.4840     0.0000    24.0000 </r>
       <r>     8.4944     0.0000    24.0000 </r>
       <r>     8.5049     0.0000    24.0000 </r>
       <r>     8.5153     0.0000    24.0000 </r>
       <r>     8.5257     0.0000    24.0000 </r>
       <r>     8.5362     0.0000    24.0000 </r>
       <r>     8.5466     0.0000    24.0000 </r>
       <r>     8.5570     0.0000    24.0000 </r>
       <r>     8.5675     0.0000    24.0000 </r>
       <r>     8.5779     0.0000    24.0000 </r>
       <r>     8.5883     0.0000    24.0000 </r>
       <r>     8.5987     0.0000    24.0000 </r>
       <r>     8.6092     0.0000    24.0000 </r>
       <r>     8.6196     0.0000    24.0000 </r>
       <r>     8.6300     0.0000    24.0000 </r>
       <r>     8.6405     0.0000    24.0000 </r>
       <r>     8.6509     0.0000    24.0000 </r>
       <r>     8.6613     0.0000    24.0000 </r>
       <r>     8.6718     0.0000    24.0000 </r>
      </set>
     </set>
    </array>
   </total>
  </dos>
 </calculation>
 <structure name="finalpos" >
  <crystal>
   <varray name="basis" >
    <v>       1.61415312      -2.79579451       0.00000000 </v>
    <v>       1.61415312       2.79579451       0.00000000 </v>
    <v>       0.00000000       0.00000000      34.96267827 </v>
   </varray>
   <i name="volume">    315.56197699 </i>
   <varray name="rec_basis" >
    <v>       0.30975996      -0.17884004       0.00000000 </v>
    <v>       0.30975996       0.17884004       0.00000000 </v>
    <v>       0.00000000       0.00000000       0.02860193 </v>
   </varray>
  </crystal>
  <varray name="positions" >
   <v>       0.66666700       0.33333300       0.10664700 </v>
   <v>       0.33333300       0.66666700       0.06198962 </v>
   <v>       0.33333300       0.66666700       0.15130538 </v>
  </varray>
 </structure>
</modeling>
