       N       E                     dE             d eps       ncg     rms          rms(c)
DAV:   1     0.231199825022E+01    0.23120E+01   -0.43680E+02 76560   0.712E+01
DAV:   2    -0.212449625859E+02   -0.23557E+02   -0.21793E+02 80656   0.425E+01
DAV:   3    -0.220353871667E+02   -0.79042E+00   -0.78107E+00 90072   0.709E+00
DAV:   4    -0.220557864923E+02   -0.20399E-01   -0.20371E-01 86432   0.115E+00
DAV:   5    -0.220564360138E+02   -0.64952E-03   -0.64915E-03 94832   0.193E-01
DAV:   6    -0.220564551802E+02   -0.19166E-04   -0.19161E-04 97008   0.284E-02
DAV:   7    -0.220564555814E+02   -0.40121E-06   -0.40088E-06 96840   0.418E-03
DAV:   8    -0.220564555977E+02   -0.16253E-07   -0.16019E-07 94824   0.608E-04
DAV:   9    -0.220564555983E+02   -0.59845E-09   -0.38807E-09 80392   0.109E-04
   1 F= -.22056456E+02 E0= -.22056456E+02  d E =-.300002E-13  mag=     0.0000     0.0000     0.0000
