       N       E                     dE             d eps       ncg     rms          rms(c)
DAV:   1     0.103034010739E+05    0.10303E+05   -0.56337E+05 11472   0.125E+03
DAV:   2    -0.102098172885E+03   -0.10405E+05   -0.10022E+05 11808   0.323E+02
DAV:   3    -0.107199102245E+04   -0.96989E+03   -0.95152E+03 11808   0.902E+01
DAV:   4    -0.110695485242E+04   -0.34964E+02   -0.34526E+02 12384   0.182E+01
DAV:   5    -0.110795864300E+04   -0.10038E+01   -0.99870E+00 12144   0.316E+00    0.664E+01
DAV:   6    -0.108581380406E+04    0.22145E+02   -0.70377E+01 13104   0.137E+01    0.239E+01
DAV:   7    -0.107878709648E+04    0.70267E+01   -0.54303E+01 11520   0.911E+00    0.142E+01
DAV:   8    -0.107483207531E+04    0.39550E+01   -0.18762E+01 11616   0.771E+00    0.976E+00
DAV:   9    -0.107355413808E+04    0.12779E+01   -0.11722E+01 11328   0.471E+00    0.560E+00
DAV:  10    -0.107347358949E+04    0.80549E-01   -0.38395E+00 11232   0.205E+00    0.322E+00
DAV:  11    -0.107322576424E+04    0.24783E+00   -0.64956E-01 11280   0.854E-01    0.126E+00
DAV:  12    -0.107322408173E+04    0.16825E-02   -0.19674E-01 11808   0.446E-01    0.463E-01
DAV:  13    -0.107322109242E+04    0.29893E-02   -0.39117E-02 11520   0.183E-01    0.288E-01
DAV:  14    -0.107322064927E+04    0.44315E-03   -0.51345E-03 11712   0.911E-02    0.119E-01
DAV:  15    -0.107322098253E+04   -0.33326E-03   -0.18543E-03 11520   0.594E-02    0.512E-02
DAV:  16    -0.107322093344E+04    0.49092E-04   -0.34595E-04 11568   0.215E-02    0.371E-02
DAV:  17    -0.107322089046E+04    0.42982E-04   -0.17289E-04 11280   0.129E-02    0.150E-02
DAV:  18    -0.107322087960E+04    0.10860E-04   -0.35726E-05 10368   0.676E-03    0.798E-03
DAV:  19    -0.107322087630E+04    0.32968E-05   -0.74896E-06  5760   0.336E-03
   1 F= -.11244538E+04 E0= -.11244538E+04  d E =-.112445E+04  mag=     0.0001
       N       E                     dE             d eps       ncg     rms          rms(c)
DAV:   1    -0.105797097287E+04    0.15250E+02   -0.14193E+03 10368   0.617E+01    0.755E+00
DAV:   2    -0.108094192237E+04   -0.22971E+02   -0.24362E+02  9984   0.186E+01    0.361E+00
DAV:   3    -0.108102778815E+04   -0.85866E-01   -0.37122E+00 11568   0.241E+00    0.266E+00
DAV:   4    -0.108092312415E+04    0.10466E+00   -0.77708E-01 11664   0.995E-01    0.105E+00
DAV:   5    -0.108091780376E+04    0.53204E-02   -0.16252E-01 12192   0.467E-01    0.638E-01
DAV:   6    -0.108090955793E+04    0.82458E-02   -0.37858E-02 11568   0.241E-01    0.301E-01
DAV:   7    -0.108090812933E+04    0.14286E-02   -0.26529E-02 11664   0.188E-01    0.125E-01
DAV:   8    -0.108090782314E+04    0.30619E-03   -0.25358E-03 11472   0.768E-02    0.781E-02
DAV:   9    -0.108090767074E+04    0.15240E-03   -0.67860E-04 11616   0.360E-02    0.406E-02
DAV:  10    -0.108090763129E+04    0.39456E-04   -0.33975E-04 11616   0.194E-02    0.186E-02
DAV:  11    -0.108090761151E+04    0.19771E-04   -0.77674E-05 10512   0.103E-02    0.970E-03
DAV:  12    -0.108090761325E+04   -0.17321E-05   -0.30631E-05 10560   0.756E-03
   2 F= -.11318950E+04 E0= -.11318950E+04  d E =-.744115E+01  mag=     0.0002
       N       E                     dE             d eps       ncg     rms          rms(c)
DAV:   1    -0.108035246585E+04    0.55515E+00   -0.68763E+01 10080   0.135E+01    0.162E+00
DAV:   2    -0.108144131724E+04   -0.10889E+01   -0.11318E+01  9792   0.398E+00    0.374E-01
DAV:   3    -0.108145005322E+04   -0.87360E-02   -0.18589E-01 11568   0.512E-01    0.112E-01
DAV:   4    -0.108145092015E+04   -0.86693E-03   -0.11216E-02 13296   0.120E-01    0.954E-02
DAV:   5    -0.108145065049E+04    0.26967E-03   -0.82843E-04 11808   0.316E-02    0.457E-02
DAV:   6    -0.108145058752E+04    0.62962E-04   -0.18268E-04 12240   0.176E-02    0.170E-02
DAV:   7    -0.108145058041E+04    0.71176E-05   -0.92872E-05 10848   0.897E-03
   3 F= -.11324950E+04 E0= -.11324950E+04  d E =-.804122E+01  mag=    -0.0004
       N       E                     dE             d eps       ncg     rms          rms(c)
DAV:   1    -0.108194390881E+04   -0.49332E+00   -0.31128E+01 10080   0.525E+00    0.133E+00
DAV:   2    -0.108219867364E+04   -0.25476E+00   -0.27794E+00 10464   0.168E+00    0.724E-01
DAV:   3    -0.108219144782E+04    0.72258E-02   -0.10594E-01 12000   0.375E-01    0.458E-01
DAV:   4    -0.108218521893E+04    0.62289E-02   -0.41266E-02 11808   0.299E-01    0.242E-01
DAV:   5    -0.108218397444E+04    0.12445E-02   -0.17927E-02 11040   0.159E-01    0.166E-01
DAV:   6    -0.108218291217E+04    0.10623E-02   -0.14561E-03 11328   0.474E-02    0.992E-02
DAV:   7    -0.108218253600E+04    0.37617E-03   -0.17837E-03 11616   0.414E-02    0.346E-02
DAV:   8    -0.108218251834E+04    0.17654E-04   -0.99062E-04 11424   0.272E-02    0.179E-02
DAV:   9    -0.108218251748E+04    0.85989E-06   -0.79765E-05 10512   0.862E-03
   4 F= -.11331379E+04 E0= -.11331379E+04  d E =-.642900E+00  mag=     0.0001
       N       E                     dE             d eps       ncg     rms          rms(c)
DAV:   1    -0.108225341094E+04   -0.70893E-01   -0.10979E+01 10272   0.311E+00    0.778E-01
DAV:   2    -0.108233444775E+04   -0.81037E-01   -0.92039E-01 10704   0.972E-01    0.473E-02
DAV:   3    -0.108233655766E+04   -0.21099E-02   -0.21224E-02 12384   0.142E-01    0.415E-02
DAV:   4    -0.108233651462E+04    0.43039E-04   -0.73278E-04 11184   0.288E-02    0.204E-02
DAV:   5    -0.108233652314E+04   -0.85182E-05   -0.83433E-05 11424   0.848E-03
   5 F= -.11332390E+04 E0= -.11332390E+04  d E =-.743982E+00  mag=    -0.0001
       N       E                     dE             d eps       ncg     rms          rms(c)
DAV:   1    -0.108228571384E+04    0.50801E-01   -0.67007E+00 10272   0.410E+00    0.512E-01
DAV:   2    -0.108239979302E+04   -0.11408E+00   -0.11049E+00 10368   0.125E+00    0.522E-01
DAV:   3    -0.108238690070E+04    0.12892E-01   -0.69760E-02 11232   0.339E-01    0.207E-01
DAV:   4    -0.108238656521E+04    0.33549E-03   -0.12260E-02 11424   0.130E-01    0.101E-01
DAV:   5    -0.108238652910E+04    0.36117E-04   -0.28251E-03 11616   0.701E-02    0.873E-02
DAV:   6    -0.108238625213E+04    0.27697E-03   -0.14761E-03 11184   0.450E-02    0.327E-02
DAV:   7    -0.108238624956E+04    0.25606E-05   -0.25085E-04 10848   0.139E-02    0.206E-02
DAV:   8    -0.108238625870E+04   -0.91394E-05   -0.59918E-05 10608   0.818E-03
   6 F= -.11332741E+04 E0= -.11332741E+04  d E =-.351165E-01  mag=     0.0002
       N       E                     dE             d eps       ncg     rms          rms(c)
DAV:   1    -0.108238174950E+04    0.45001E-02   -0.26202E-01 10272   0.811E-01    0.102E-01
DAV:   2    -0.108238563394E+04   -0.38844E-02   -0.40979E-02  9792   0.239E-01    0.907E-03
DAV:   3    -0.108238569615E+04   -0.62202E-04   -0.54159E-04 11712   0.277E-02    0.517E-03
DAV:   4    -0.108238569926E+04   -0.31125E-05   -0.19709E-05  9312   0.532E-03
   7 F= -.11332765E+04 E0= -.11332765E+04  d E =-.374617E-01  mag=    -0.0001
