<?xml version="1.0" encoding="ISO-8859-1"?>
<modeling>
 <generator>
  <i name="program" type="string">vasp </i>
  <i name="version" type="string">5.4.1  </i>
  <i name="subversion" type="string">05Feb16 (build Feb 01 2017 11:31:40) complex                          parallel </i>
  <i name="platform" type="string">IFC91_ompi </i>
  <i name="date" type="string">2025 11 04 </i>
  <i name="time" type="string">15:30:44 </i>
 </generator>
 <incar>
  <i type="string" name="SYSTEM"> MoSSe-WSSe pre-relaxation (atoms only)</i>
  <i type="string" name="PREC">accurate</i>
  <i type="string" name="ALGO"> Normal</i>
  <i type="logical" name="ADDGRID"> T  </i>
  <i type="int" name="ISPIN">     2</i>
  <i type="int" name="MAXMIX">    40</i>
  <i name="AMIX">      0.20000000</i>
  <i name="BMIX">      0.00010000</i>
  <i name="AMIX_MAG">      0.80000000</i>
  <i name="BMIX_MAG">      0.00010000</i>
  <i type="int" name="NELM">   100</i>
  <i type="int" name="NELMDL">    -5</i>
  <i type="int" name="NELMIN">     4</i>
  <i type="int" name="IBRION">     2</i>
  <i name="EDIFF">      0.00001000</i>
  <i name="EDIFFG">     -0.03000000</i>
  <i type="int" name="NSW">   150</i>
  <i type="int" name="ISIF">     2</i>
  <i name="ENCUT">    520.00000000</i>
  <i name="POTIM">      0.30000000</i>
  <v name="MAGMOM">      2.00000000      2.00000000      2.00000000      2.00000000      2.00000000      2.00000000      2.00000000      2.00000000      2.00000000      2.00000000      2.00000000      2.00000000      2.00000000      2.00000000      2.00000000      2.00000000      2.00000000      2.00000000      2.00000000      2.00000000
      2.00000000      2.00000000      2.00000000      2.00000000      2.00000000      2.00000000      2.00000000      2.00000000      2.00000000      2.00000000      2.00000000      2.00000000      2.00000000      2.00000000      2.00000000      2.00000000      2.00000000      2.00000000      2.00000000      2.00000000
      2.00000000      2.00000000      2.00000000      2.00000000      2.00000000      2.00000000      2.00000000      2.00000000      2.00000000      2.00000000      0.00000000      0.00000000      0.00000000      0.00000000      0.00000000      0.00000000      0.00000000      0.00000000      0.00000000      0.00000000
      0.00000000      0.00000000      0.00000000      0.00000000      0.00000000      0.00000000      0.00000000      0.00000000      0.00000000      0.00000000      0.00000000      0.00000000      0.00000000      0.00000000      0.00000000      0.00000000      0.00000000      0.00000000      0.00000000      0.00000000
      0.00000000      0.00000000      0.00000000      0.00000000      0.00000000      0.00000000      0.00000000      0.00000000      0.00000000      0.00000000      0.00000000      0.00000000      0.00000000      0.00000000      0.00000000      0.00000000      0.00000000      0.00000000      0.00000000      0.00000000
      0.00000000      0.00000000      0.00000000      0.00000000      0.00000000      0.00000000      0.00000000      0.00000000      0.00000000      0.00000000      0.00000000      0.00000000      0.00000000      0.00000000      0.00000000      0.00000000      0.00000000      0.00000000      0.00000000      0.00000000
      0.00000000      0.00000000      0.00000000      0.00000000      0.00000000      0.00000000      0.00000000      0.00000000      0.00000000      0.00000000      0.00000000      0.00000000      0.00000000      0.00000000      0.00000000      0.00000000      0.00000000      0.00000000      0.00000000      0.00000000
      0.00000000      0.00000000      0.00000000      0.00000000      0.00000000      0.00000000      0.00000000      0.00000000      0.00000000      0.00000000</v>
  <i type="logical" name="LREAL"> F  </i>
  <i type="int" name="ISMEAR">     0</i>
  <i name="SIGMA">      0.05000000</i>
  <i name="PSTRESS">      0.00000000</i>
  <i type="int" name="LMAXMIX">     4</i>
  <i type="logical" name="LASPH"> T  </i>
  <v type="int" name="KPOINT_BSE">    -1     0     0     0</v>
  <i type="int" name="NELM">   100</i>
  <i type="logical" name="LASPH"> T  </i>
 </incar>
 <kpoints>
  <generation param="Gamma">
   <v type="int" name="divisions">       3        3        1 </v>
   <v name="usershift">      0.00000000       0.00000000       0.00000000 </v>
   <v name="genvec1">      0.33333333       0.00000000       0.00000000 </v>
   <v name="genvec2">      0.00000000       0.33333333       0.00000000 </v>
   <v name="genvec3">      0.00000000       0.00000000       1.00000000 </v>
   <v name="shift">      0.00000000       0.00000000       0.00000000 </v>
  </generation>
  <varray name="kpointlist" >
   <v>       0.00000000       0.00000000       0.00000000 </v>
   <v>       0.33333333      -0.00000000       0.00000000 </v>
   <v>       0.33333333       0.33333333       0.00000000 </v>
  </varray>
  <varray name="weights" >
   <v>       0.11111111 </v>
   <v>       0.66666667 </v>
   <v>       0.22222222 </v>
  </varray>
 </kpoints>
 <parameters>
  <separator name="general" >
   <i type="string" name="SYSTEM">MoSSe-WSSe pre-relaxation (atoms only)</i>
   <i type="logical" name="LCOMPAT"> F  </i>
  </separator>
  <separator name="electronic" >
   <i type="string" name="PREC">accura</i>
   <i name="ENMAX">    520.00000000</i>
   <i name="ENAUG">    446.84200000</i>
   <i name="EDIFF">      0.00001000</i>
   <i type="int" name="IALGO">    38</i>
   <i type="int" name="IWAVPR">    11</i>
   <i type="int" name="NBANDS">   816</i>
   <i name="NELECT">   1200.00000000</i>
   <i type="int" name="TURBO">     0</i>
   <i type="int" name="IRESTART">     0</i>
   <i type="int" name="NREBOOT">     0</i>
   <i type="int" name="NMIN">     0</i>
   <i name="EREF">      0.00000000</i>
   <separator name="electronic smearing" >
    <i type="int" name="ISMEAR">     0</i>
    <i name="SIGMA">      0.05000000</i>
    <i name="KSPACING">      0.50000000</i>
    <i type="logical" name="KGAMMA"> T  </i>
   </separator>
   <separator name="electronic projectors" >
    <i type="logical" name="LREAL"> F  </i>
    <v name="ROPT">      0.00000000      0.00000000      0.00000000      0.00000000</v>
    <i type="int" name="LMAXPAW">  -100</i>
    <i type="int" name="LMAXMIX">     4</i>
    <i type="logical" name="NLSPLINE"> F  </i>
   </separator>
   <separator name="electronic startup" >
    <i type="int" name="ISTART">     0</i>
    <i type="int" name="ICHARG">     2</i>
    <i type="int" name="INIWAV">     1</i>
   </separator>
   <separator name="electronic spin" >
    <i type="int" name="ISPIN">     2</i>
    <i type="logical" name="LNONCOLLINEAR"> F  </i>
    <v name="MAGMOM">      2.00000000      2.00000000      2.00000000      2.00000000      2.00000000      2.00000000      2.00000000      2.00000000      2.00000000      2.00000000      2.00000000      2.00000000      2.00000000      2.00000000      2.00000000      2.00000000      2.00000000      2.00000000      2.00000000      2.00000000
      2.00000000      2.00000000      2.00000000      2.00000000      2.00000000      2.00000000      2.00000000      2.00000000      2.00000000      2.00000000      2.00000000      2.00000000      2.00000000      2.00000000      2.00000000      2.00000000      2.00000000      2.00000000      2.00000000      2.00000000
      2.00000000      2.00000000      2.00000000      2.00000000      2.00000000      2.00000000      2.00000000      2.00000000      2.00000000      2.00000000      0.00000000      0.00000000      0.00000000      0.00000000      0.00000000      0.00000000      0.00000000      0.00000000      0.00000000      0.00000000
      0.00000000      0.00000000      0.00000000      0.00000000      0.00000000      0.00000000      0.00000000      0.00000000      0.00000000      0.00000000      0.00000000      0.00000000      0.00000000      0.00000000      0.00000000      0.00000000      0.00000000      0.00000000      0.00000000      0.00000000
      0.00000000      0.00000000      0.00000000      0.00000000      0.00000000      0.00000000      0.00000000      0.00000000      0.00000000      0.00000000      0.00000000      0.00000000      0.00000000      0.00000000      0.00000000      0.00000000      0.00000000      0.00000000      0.00000000      0.00000000
      0.00000000      0.00000000      0.00000000      0.00000000      0.00000000      0.00000000      0.00000000      0.00000000      0.00000000      0.00000000      0.00000000      0.00000000      0.00000000      0.00000000      0.00000000      0.00000000      0.00000000      0.00000000      0.00000000      0.00000000
      0.00000000      0.00000000      0.00000000      0.00000000      0.00000000      0.00000000      0.00000000      0.00000000      0.00000000      0.00000000      0.00000000      0.00000000      0.00000000      0.00000000      0.00000000      0.00000000      0.00000000      0.00000000      0.00000000      0.00000000
      0.00000000      0.00000000      0.00000000      0.00000000      0.00000000      0.00000000      0.00000000      0.00000000      0.00000000      0.00000000</v>
    <i name="NUPDOWN">     -1.00000000</i>
    <i type="logical" name="LSORBIT"> F  </i>
    <v name="SAXIS">      0.00000000      0.00000000      1.00000000</v>
    <i type="logical" name="LSPIRAL"> F  </i>
    <v name="QSPIRAL">      0.00000000      0.00000000      0.00000000</v>
    <i type="logical" name="LZEROZ"> F  </i>
   </separator>
   <separator name="electronic exchange-correlation" >
    <i type="logical" name="LASPH"> T  </i>
    <i type="logical" name="LMETAGGA"> F  </i>
   </separator>
   <separator name="electronic convergence" >
    <i type="int" name="NELM">   100</i>
    <i type="int" name="NELMDL">    -5</i>
    <i type="int" name="NELMIN">     4</i>
    <i name="ENINI">    520.00000000</i>
    <separator name="electronic convergence detail" >
     <i type="logical" name="LDIAG"> T  </i>
     <i type="logical" name="LSUBROT"> F  </i>
     <i name="WEIMIN">      0.00100000</i>
     <i name="EBREAK">      0.00000000</i>
     <i name="DEPER">      0.30000000</i>
     <i type="int" name="NRMM">     4</i>
     <i name="TIME">      0.40000000</i>
    </separator>
   </separator>
   <separator name="electronic mixer" >
    <i name="AMIX">      0.20000000</i>
    <i name="BMIX">      0.00010000</i>
    <i name="AMIN">      0.10000000</i>
    <i name="AMIX_MAG">      0.80000000</i>
    <i name="BMIX_MAG">      0.00010000</i>
    <separator name="electronic mixer details" >
     <i type="int" name="IMIX">     4</i>
     <i type="logical" name="MIXFIRST"> F  </i>
     <i type="int" name="MAXMIX">    40</i>
     <i name="WC">    100.00000000</i>
     <i type="int" name="INIMIX">     1</i>
     <i type="int" name="MIXPRE">     1</i>
     <i type="int" name="MREMOVE">     5</i>
    </separator>
   </separator>
   <separator name="electronic dipolcorrection" >
    <i type="logical" name="LDIPOL"> F  </i>
    <i type="logical" name="LMONO"> F  </i>
    <i type="int" name="IDIPOL">     0</i>
    <i name="EPSILON">      1.00000000</i>
    <v name="DIPOL">   -100.00000000   -100.00000000   -100.00000000</v>
    <i name="EFIELD">      0.00000000</i>
   </separator>
  </separator>
  <separator name="grids" >
   <i type="int" name="NGX">   120</i>
   <i type="int" name="NGY">   120</i>
   <i type="int" name="NGZ">   210</i>
   <i type="int" name="NGXF">   240</i>
   <i type="int" name="NGYF">   240</i>
   <i type="int" name="NGZF">   420</i>
   <i type="logical" name="ADDGRID"> T  </i>
  </separator>
  <separator name="ionic" >
   <i type="int" name="NSW">   150</i>
   <i type="int" name="IBRION">     2</i>
   <i type="int" name="ISIF">     2</i>
   <i name="PSTRESS">      0.00000000</i>
   <i name="EDIFFG">     -0.03000000</i>
   <i type="int" name="NFREE">     1</i>
   <i name="POTIM">      0.30000000</i>
   <i name="SMASS">     -3.00000000</i>
   <i name="SCALEE">      1.00000000</i>
  </separator>
  <separator name="ionic md" >
   <i name="TEBEG">      0.00010000</i>
   <i name="TEEND">      0.00010000</i>
   <i type="int" name="NBLOCK">     1</i>
   <i type="int" name="KBLOCK">   150</i>
   <i type="int" name="NPACO">   256</i>
   <i name="APACO">     16.00000000</i>
  </separator>
  <separator name="symmetry" >
   <i type="int" name="ISYM">     2</i>
   <i name="SYMPREC">      0.00001000</i>
  </separator>
  <separator name="dos" >
   <i type="logical" name="LORBIT"> F  </i>
   <v name="RWIGS">     -1.00000000     -1.00000000     -1.00000000     -1.00000000</v>
   <i type="int" name="NEDOS">   301</i>
   <i name="EMIN">     10.00000000</i>
   <i name="EMAX">    -10.00000000</i>
   <i name="EFERMI">      0.00000000</i>
  </separator>
  <separator name="writing" >
   <i type="int" name="NWRITE">     2</i>
   <i type="logical" name="LWAVE"> T  </i>
   <i type="logical" name="LCHARG"> T  </i>
   <i type="logical" name="LPARD"> F  </i>
   <i type="logical" name="LVTOT"> F  </i>
   <i type="logical" name="LVHAR"> F  </i>
   <i type="logical" name="LELF"> F  </i>
   <i type="logical" name="LOPTICS"> F  </i>
   <v name="STM">      0.00000000      0.00000000      0.00000000      0.00000000      0.00000000      0.00000000      0.00000000</v>
  </separator>
  <separator name="performance" >
   <i type="int" name="NPAR">    48</i>
   <i type="int" name="NSIM">     4</i>
   <i type="int" name="NBLK">    -1</i>
   <i type="logical" name="LPLANE"> T  </i>
   <i type="logical" name="LSCALAPACK"> T  </i>
   <i type="logical" name="LSCAAWARE"> F  </i>
   <i type="logical" name="LSCALU"> F  </i>
   <i type="logical" name="LASYNC"> F  </i>
   <i type="logical" name="LORBITALREAL"> F  </i>
  </separator>
  <separator name="miscellaneous" >
   <i type="int" name="IDIOT">     3</i>
   <i type="logical" name="LMUSIC"> F  </i>
   <v name="POMASS">     95.94000000    183.85000000     32.06600000     78.96000000</v>
   <v name="DARWINR">      0.00000000      0.00000000      0.00000000      0.00000000</v>
   <v name="DARWINV">      1.00000000      1.00000000      1.00000000      1.00000000</v>
   <i type="logical" name="LCORR"> T  </i>
  </separator>
  <i type="logical" name="GGA_COMPAT"> T  </i>
  <i type="logical" name="LBERRY"> F  </i>
  <i type="int" name="ICORELEVEL">     0</i>
  <i type="logical" name="LDAU"> F  </i>
  <i type="int" name="I_CONSTRAINED_M">     0</i>
  <separator name="electronic exchange-correlation" >
   <i type="string" name="GGA">--</i>
   <i type="int" name="VOSKOWN">     0</i>
   <i type="logical" name="LHFCALC"> F  </i>
   <i type="string" name="PRECFOCK"></i>
   <i type="logical" name="LSYMGRAD"> F  </i>
   <i type="logical" name="LHFONE"> F  </i>
   <i type="logical" name="LRHFCALC"> F  </i>
   <i type="logical" name="LTHOMAS"> F  </i>
   <i type="logical" name="LMODELHF"> F  </i>
   <i name="ENCUT4O">     -1.00000000</i>
   <i type="int" name="EXXOEP">     0</i>
   <i type="int" name="FOURORBIT">     0</i>
   <i name="AEXX">      0.00000000</i>
   <i name="HFALPHA">      0.00000000</i>
   <i name="MCALPHA">      0.00000000</i>
   <i name="ALDAX">      1.00000000</i>
   <i name="AGGAX">      1.00000000</i>
   <i name="ALDAC">      1.00000000</i>
   <i name="AGGAC">      1.00000000</i>
   <i type="int" name="NKREDX">     1</i>
   <i type="int" name="NKREDY">     1</i>
   <i type="int" name="NKREDZ">     1</i>
   <i type="logical" name="SHIFTRED"> F  </i>
   <i type="logical" name="ODDONLY"> F  </i>
   <i type="logical" name="EVENONLY"> F  </i>
   <i type="int" name="LMAXFOCK">     0</i>
   <i type="int" name="NMAXFOCKAE">     0</i>
   <i type="logical" name="LFOCKAEDFT"> F  </i>
   <i name="HFSCREEN">      0.00000000</i>
   <i name="HFSCREENC">      0.00000000</i>
   <i type="int" name="NBANDSGWLOW">     0</i>
  </separator>
  <separator name="vdW DFT" >
   <i type="logical" name="LUSE_VDW"> F  </i>
   <i name="Zab_VDW">     -0.84910000</i>
   <i name="PARAM1">      0.12340000</i>
   <i name="PARAM2">      1.00000000</i>
   <i name="PARAM3">      0.00000000</i>
  </separator>
  <separator name="model GW" >
   <i type="int" name="MODEL_GW">     0</i>
   <i name="MODEL_EPS0">     24.90084089</i>
   <i name="MODEL_ALPHA">      1.00000000</i>
  </separator>
  <separator name="linear response parameters" >
   <i type="logical" name="LEPSILON"> F  </i>
   <i type="logical" name="LRPA"> F  </i>
   <i type="logical" name="LNABLA"> F  </i>
   <i type="logical" name="LVEL"> F  </i>
   <i type="int" name="KINTER">     0</i>
   <i name="CSHIFT">      0.10000000</i>
   <i name="OMEGAMAX">     -1.00000000</i>
   <i name="DEG_THRESHOLD">      0.00200000</i>
  </separator>
  <separator name="orbital magnetization" >
   <i type="logical" name="NUCIND"> F  </i>
   <v name="MAGPOS">      0.00000000      0.00000000      0.00000000</v>
   <i type="logical" name="LNICSALL"> T  </i>
   <i type="logical" name="ORBITALMAG"> F  </i>
   <i type="logical" name="LMAGBLOCH"> F  </i>
   <i type="logical" name="LCHIMAG"> F  </i>
   <i type="logical" name="LGAUGE"> T  </i>
   <i type="int" name="MAGATOM">     0</i>
   <v name="MAGDIPOL">      0.00000000      0.00000000      0.00000000</v>
   <v name="AVECCONST">      0.00000000      0.00000000      0.00000000</v>
  </separator>
  <separator name="response functions" >
   <i type="logical" name="LADDER"> F  </i>
   <i type="logical" name="LFXC"> F  </i>
   <i type="logical" name="LHARTREE"> T  </i>
   <i type="int" name="IBSE">     0</i>
   <v type="int" name="KPOINT">    -1     0     0     0</v>
   <i type="logical" name="LTCTE"> F  </i>
   <i type="logical" name="LTETE"> F  </i>
   <i type="logical" name="LTRIPLET"> F  </i>
   <i type="logical" name="LFXCEPS"> F  </i>
   <i type="logical" name="LFXHEG"> F  </i>
   <i type="int" name="NATURALO">     0</i>
   <i type="logical" name="L2ORDER"> F  </i>
   <i type="logical" name="LUSEW"> F  </i>
   <i name="ENCUTGW">     -2.00000000</i>
   <i name="ENCUTGWSOFT">     -2.00000000</i>
   <i name="ENCUTLF">     -1.00000000</i>
   <i type="int" name="LMAXMP2">    -1</i>
   <i name="SCISSOR">      0.00000000</i>
   <i type="int" name="NOMEGA">     0</i>
   <i type="int" name="NOMEGAR">     0</i>
   <i type="int" name="NBANDSGW">    -1</i>
   <i type="int" name="NBANDSO">    -1</i>
   <i type="int" name="NBANDSV">    -1</i>
   <i type="int" name="NELM">   100</i>
   <i type="int" name="NELMHF">     1</i>
   <i type="int" name="DIM">     3</i>
   <i type="int" name="ANTIRES">     0</i>
   <i name="OMEGAMAX">    -30.00000000</i>
   <i name="OMEGAMIN">    -30.00000000</i>
   <i name="OMEGATL">   -200.00000000</i>
   <i type="int" name="OMEGAGRID">     0</i>
   <i name="CSHIFT">     -0.10000000</i>
   <i type="logical" name="SELFENERGY"> F  </i>
   <i type="logical" name="LSPECTRAL"> F  </i>
   <i type="logical" name="LSPECTRALGW"> F  </i>
   <i type="logical" name="LSINGLES"> F  </i>
   <i type="logical" name="LFERMIGW"> F  </i>
   <i type="logical" name="ODDONLYGW"> F  </i>
   <i type="logical" name="EVENONLYGW"> F  </i>
   <i type="int" name="NKREDLFX">     1</i>
   <i type="int" name="NKREDLFY">     1</i>
   <i type="int" name="NKREDLFZ">     1</i>
   <i type="int" name="MAXMEM">  1800</i>
   <i type="int" name="TELESCOPE">     0</i>
   <i type="int" name="TAUPAR">     1</i>
   <i type="int" name="OMEGAPAR">    -1</i>
   <i name="LAMBDA">      1.00000000</i>
  </separator>
  <separator name="External order field" >
   <i name="OFIELD_KAPPA">      0.00000000</i>
   <v name="OFIELD_K">      0.00000000      0.00000000      0.00000000</v>
   <i name="OFIELD_Q6_NEAR">      0.00000000</i>
   <i name="OFIELD_Q6_FAR">      0.00000000</i>
   <i name="OFIELD_A">      0.00000000</i>
  </separator>
  <separator name="solvation model" >
   <i type="logical" name="LSOL"> F  </i>
  </separator>
 </parameters>
 <atominfo>
  <atoms>     150 </atoms>
  <types>       4 </types>
  <array name="atoms" >
   <dimension dim="1">ion</dimension>
   <field type="string">element</field>
   <field type="int">atomtype</field>
   <set>
    <rc><c>Mo</c><c>   1</c></rc>
    <rc><c>Mo</c><c>   1</c></rc>
    <rc><c>Mo</c><c>   1</c></rc>
    <rc><c>Mo</c><c>   1</c></rc>
    <rc><c>Mo</c><c>   1</c></rc>
    <rc><c>Mo</c><c>   1</c></rc>
    <rc><c>Mo</c><c>   1</c></rc>
    <rc><c>Mo</c><c>   1</c></rc>
    <rc><c>Mo</c><c>   1</c></rc>
    <rc><c>Mo</c><c>   1</c></rc>
    <rc><c>Mo</c><c>   1</c></rc>
    <rc><c>Mo</c><c>   1</c></rc>
    <rc><c>Mo</c><c>   1</c></rc>
    <rc><c>Mo</c><c>   1</c></rc>
    <rc><c>Mo</c><c>   1</c></rc>
    <rc><c>Mo</c><c>   1</c></rc>
    <rc><c>Mo</c><c>   1</c></rc>
    <rc><c>Mo</c><c>   1</c></rc>
    <rc><c>Mo</c><c>   1</c></rc>
    <rc><c>Mo</c><c>   1</c></rc>
    <rc><c>Mo</c><c>   1</c></rc>
    <rc><c>Mo</c><c>   1</c></rc>
    <rc><c>Mo</c><c>   1</c></rc>
    <rc><c>Mo</c><c>   1</c></rc>
    <rc><c>Mo</c><c>   1</c></rc>
    <rc><c>W </c><c>   2</c></rc>
    <rc><c>W </c><c>   2</c></rc>
    <rc><c>W </c><c>   2</c></rc>
    <rc><c>W </c><c>   2</c></rc>
    <rc><c>W </c><c>   2</c></rc>
    <rc><c>W </c><c>   2</c></rc>
    <rc><c>W </c><c>   2</c></rc>
    <rc><c>W </c><c>   2</c></rc>
    <rc><c>W </c><c>   2</c></rc>
    <rc><c>W </c><c>   2</c></rc>
    <rc><c>W </c><c>   2</c></rc>
    <rc><c>W </c><c>   2</c></rc>
    <rc><c>W </c><c>   2</c></rc>
    <rc><c>W </c><c>   2</c></rc>
    <rc><c>W </c><c>   2</c></rc>
    <rc><c>W </c><c>   2</c></rc>
    <rc><c>W </c><c>   2</c></rc>
    <rc><c>W </c><c>   2</c></rc>
    <rc><c>W </c><c>   2</c></rc>
    <rc><c>W </c><c>   2</c></rc>
    <rc><c>W </c><c>   2</c></rc>
    <rc><c>W </c><c>   2</c></rc>
    <rc><c>W </c><c>   2</c></rc>
    <rc><c>W </c><c>   2</c></rc>
    <rc><c>W </c><c>   2</c></rc>
    <rc><c>S </c><c>   3</c></rc>
    <rc><c>S </c><c>   3</c></rc>
    <rc><c>S </c><c>   3</c></rc>
    <rc><c>S </c><c>   3</c></rc>
    <rc><c>S </c><c>   3</c></rc>
    <rc><c>S </c><c>   3</c></rc>
    <rc><c>S </c><c>   3</c></rc>
    <rc><c>S </c><c>   3</c></rc>
    <rc><c>S </c><c>   3</c></rc>
    <rc><c>S </c><c>   3</c></rc>
    <rc><c>S </c><c>   3</c></rc>
    <rc><c>S </c><c>   3</c></rc>
    <rc><c>S </c><c>   3</c></rc>
    <rc><c>S </c><c>   3</c></rc>
    <rc><c>S </c><c>   3</c></rc>
    <rc><c>S </c><c>   3</c></rc>
    <rc><c>S </c><c>   3</c></rc>
    <rc><c>S </c><c>   3</c></rc>
    <rc><c>S </c><c>   3</c></rc>
    <rc><c>S </c><c>   3</c></rc>
    <rc><c>S </c><c>   3</c></rc>
    <rc><c>S </c><c>   3</c></rc>
    <rc><c>S </c><c>   3</c></rc>
    <rc><c>S </c><c>   3</c></rc>
    <rc><c>S </c><c>   3</c></rc>
    <rc><c>S </c><c>   3</c></rc>
    <rc><c>S </c><c>   3</c></rc>
    <rc><c>S </c><c>   3</c></rc>
    <rc><c>S </c><c>   3</c></rc>
    <rc><c>S </c><c>   3</c></rc>
    <rc><c>S </c><c>   3</c></rc>
    <rc><c>S </c><c>   3</c></rc>
    <rc><c>S </c><c>   3</c></rc>
    <rc><c>S </c><c>   3</c></rc>
    <rc><c>S </c><c>   3</c></rc>
    <rc><c>S </c><c>   3</c></rc>
    <rc><c>S </c><c>   3</c></rc>
    <rc><c>S </c><c>   3</c></rc>
    <rc><c>S </c><c>   3</c></rc>
    <rc><c>S </c><c>   3</c></rc>
    <rc><c>S </c><c>   3</c></rc>
    <rc><c>S </c><c>   3</c></rc>
    <rc><c>S </c><c>   3</c></rc>
    <rc><c>S </c><c>   3</c></rc>
    <rc><c>S </c><c>   3</c></rc>
    <rc><c>S </c><c>   3</c></rc>
    <rc><c>S </c><c>   3</c></rc>
    <rc><c>S </c><c>   3</c></rc>
    <rc><c>S </c><c>   3</c></rc>
    <rc><c>S </c><c>   3</c></rc>
    <rc><c>Se</c><c>   4</c></rc>
    <rc><c>Se</c><c>   4</c></rc>
    <rc><c>Se</c><c>   4</c></rc>
    <rc><c>Se</c><c>   4</c></rc>
    <rc><c>Se</c><c>   4</c></rc>
    <rc><c>Se</c><c>   4</c></rc>
    <rc><c>Se</c><c>   4</c></rc>
    <rc><c>Se</c><c>   4</c></rc>
    <rc><c>Se</c><c>   4</c></rc>
    <rc><c>Se</c><c>   4</c></rc>
    <rc><c>Se</c><c>   4</c></rc>
    <rc><c>Se</c><c>   4</c></rc>
    <rc><c>Se</c><c>   4</c></rc>
    <rc><c>Se</c><c>   4</c></rc>
    <rc><c>Se</c><c>   4</c></rc>
    <rc><c>Se</c><c>   4</c></rc>
    <rc><c>Se</c><c>   4</c></rc>
    <rc><c>Se</c><c>   4</c></rc>
    <rc><c>Se</c><c>   4</c></rc>
    <rc><c>Se</c><c>   4</c></rc>
    <rc><c>Se</c><c>   4</c></rc>
    <rc><c>Se</c><c>   4</c></rc>
    <rc><c>Se</c><c>   4</c></rc>
    <rc><c>Se</c><c>   4</c></rc>
    <rc><c>Se</c><c>   4</c></rc>
    <rc><c>Se</c><c>   4</c></rc>
    <rc><c>Se</c><c>   4</c></rc>
    <rc><c>Se</c><c>   4</c></rc>
    <rc><c>Se</c><c>   4</c></rc>
    <rc><c>Se</c><c>   4</c></rc>
    <rc><c>Se</c><c>   4</c></rc>
    <rc><c>Se</c><c>   4</c></rc>
    <rc><c>Se</c><c>   4</c></rc>
    <rc><c>Se</c><c>   4</c></rc>
    <rc><c>Se</c><c>   4</c></rc>
    <rc><c>Se</c><c>   4</c></rc>
    <rc><c>Se</c><c>   4</c></rc>
    <rc><c>Se</c><c>   4</c></rc>
    <rc><c>Se</c><c>   4</c></rc>
    <rc><c>Se</c><c>   4</c></rc>
    <rc><c>Se</c><c>   4</c></rc>
    <rc><c>Se</c><c>   4</c></rc>
    <rc><c>Se</c><c>   4</c></rc>
    <rc><c>Se</c><c>   4</c></rc>
    <rc><c>Se</c><c>   4</c></rc>
    <rc><c>Se</c><c>   4</c></rc>
    <rc><c>Se</c><c>   4</c></rc>
    <rc><c>Se</c><c>   4</c></rc>
    <rc><c>Se</c><c>   4</c></rc>
    <rc><c>Se</c><c>   4</c></rc>
   </set>
  </array>
  <array name="atomtypes" >
   <dimension dim="1">type</dimension>
   <field type="int">atomspertype</field>
   <field type="string">element</field>
   <field>mass</field>
   <field>valence</field>
   <field type="string">pseudopotential</field>
   <set>
    <rc><c>  25</c><c>Mo</c><c>     95.94000000</c><c>     12.00000000</c><c> PAW_PBE Mo_pv 08Apr2002                </c></rc>
    <rc><c>  25</c><c>W </c><c>    183.85000000</c><c>     12.00000000</c><c> PAW_PBE W_pv 06Sep2000                 </c></rc>
    <rc><c>  50</c><c>S </c><c>     32.06600000</c><c>      6.00000000</c><c>  PAW_PBE S 17Jan2003                   </c></rc>
    <rc><c>  50</c><c>Se</c><c>     78.96000000</c><c>      6.00000000</c><c> PAW_PBE Se 06Sep2000                   </c></rc>
   </set>
  </array>
 </atominfo>
 <structure name="initialpos" >
  <crystal>
   <varray name="basis" >
    <v>      15.95157981       0.00000000       0.00000000 </v>
    <v>      -7.97578990      13.81447335       0.00000000 </v>
    <v>       0.00000000       0.00000000      28.24983972 </v>
   </varray>
   <i name="volume">   6225.21022374 </i>
   <varray name="rec_basis" >
    <v>       0.06268972       0.03619392       0.00000000 </v>
    <v>       0.00000000       0.07238785       0.00000000 </v>
    <v>       0.00000000       0.00000000       0.03539843 </v>
   </varray>
  </crystal>
  <varray name="positions" >
   <v>       0.13333340       0.06666660       0.05539445 </v>
   <v>       0.13333340       0.26666660       0.05539445 </v>
   <v>       0.13333340       0.46666660       0.05539445 </v>
   <v>       0.13333340       0.66666660       0.05539445 </v>
   <v>       0.13333340       0.86666660       0.05539445 </v>
   <v>       0.33333340       0.06666660       0.05539445 </v>
   <v>       0.33333340       0.26666660       0.05539445 </v>
   <v>       0.33333340       0.46666660       0.05539445 </v>
   <v>       0.33333340       0.66666660       0.05539445 </v>
   <v>       0.33333340       0.86666660       0.05539445 </v>
   <v>       0.53333340       0.06666660       0.05539445 </v>
   <v>       0.53333340       0.26666660       0.05539445 </v>
   <v>       0.53333340       0.46666660       0.05539445 </v>
   <v>       0.53333340       0.66666660       0.05539445 </v>
   <v>       0.53333340       0.86666660       0.05539445 </v>
   <v>       0.73333340       0.06666660       0.05539445 </v>
   <v>       0.73333340       0.26666660       0.05539445 </v>
   <v>       0.73333340       0.46666660       0.05539445 </v>
   <v>       0.73333340       0.66666660       0.05539445 </v>
   <v>       0.73333340       0.86666660       0.05539445 </v>
   <v>       0.93333340       0.06666660       0.05539445 </v>
   <v>       0.93333340       0.26666660       0.05539445 </v>
   <v>       0.93333340       0.46666660       0.05539445 </v>
   <v>       0.93333340       0.66666660       0.05539445 </v>
   <v>       0.93333340       0.86666660       0.05539445 </v>
   <v>       0.06666660       0.13333340       0.41026088 </v>
   <v>       0.06666660       0.33333340       0.41026088 </v>
   <v>       0.06666660       0.53333340       0.41026088 </v>
   <v>       0.06666660       0.73333340       0.41026088 </v>
   <v>       0.06666660       0.93333340       0.41026088 </v>
   <v>       0.26666660       0.13333340       0.41026088 </v>
   <v>       0.26666660       0.33333340       0.41026088 </v>
   <v>       0.26666660       0.53333340       0.41026088 </v>
   <v>       0.26666660       0.73333340       0.41026088 </v>
   <v>       0.26666660       0.93333340       0.41026088 </v>
   <v>       0.46666660       0.13333340       0.41026088 </v>
   <v>       0.46666660       0.33333340       0.41026088 </v>
   <v>       0.46666660       0.53333340       0.41026088 </v>
   <v>       0.46666660       0.73333340       0.41026088 </v>
   <v>       0.46666660       0.93333340       0.41026088 </v>
   <v>       0.66666660       0.13333340       0.41026088 </v>
   <v>       0.66666660       0.33333340       0.41026088 </v>
   <v>       0.66666660       0.53333340       0.41026088 </v>
   <v>       0.66666660       0.73333340       0.41026088 </v>
   <v>       0.66666660       0.93333340       0.41026088 </v>
   <v>       0.86666660       0.13333340       0.41026088 </v>
   <v>       0.86666660       0.33333340       0.41026088 </v>
   <v>       0.86666660       0.53333340       0.41026088 </v>
   <v>       0.86666660       0.73333340       0.41026088 </v>
   <v>       0.86666660       0.93333340       0.41026088 </v>
   <v>       0.06666660       0.13333340       0.11078890 </v>
   <v>       0.06666660       0.33333340       0.11078890 </v>
   <v>       0.06666660       0.53333340       0.11078890 </v>
   <v>       0.06666660       0.73333340       0.11078890 </v>
   <v>       0.06666660       0.93333340       0.11078890 </v>
   <v>       0.26666660       0.13333340       0.11078890 </v>
   <v>       0.26666660       0.33333340       0.11078890 </v>
   <v>       0.26666660       0.53333340       0.11078890 </v>
   <v>       0.26666660       0.73333340       0.11078890 </v>
   <v>       0.26666660       0.93333340       0.11078890 </v>
   <v>       0.46666660       0.13333340       0.11078890 </v>
   <v>       0.46666660       0.33333340       0.11078890 </v>
   <v>       0.46666660       0.53333340       0.11078890 </v>
   <v>       0.46666660       0.73333340       0.11078890 </v>
   <v>       0.46666660       0.93333340       0.11078890 </v>
   <v>       0.66666660       0.13333340       0.11078890 </v>
   <v>       0.66666660       0.33333340       0.11078890 </v>
   <v>       0.66666660       0.53333340       0.11078890 </v>
   <v>       0.66666660       0.73333340       0.11078890 </v>
   <v>       0.66666660       0.93333340       0.11078890 </v>
   <v>       0.86666660       0.13333340       0.11078890 </v>
   <v>       0.86666660       0.33333340       0.11078890 </v>
   <v>       0.86666660       0.53333340       0.11078890 </v>
   <v>       0.86666660       0.73333340       0.11078890 </v>
   <v>       0.86666660       0.93333340       0.11078890 </v>
   <v>       0.13333340       0.06666660       0.35149823 </v>
   <v>       0.13333340       0.26666660       0.35149823 </v>
   <v>       0.13333340       0.46666660       0.35149823 </v>
   <v>       0.13333340       0.66666660       0.35149823 </v>
   <v>       0.13333340       0.86666660       0.35149823 </v>
   <v>       0.33333340       0.06666660       0.35149823 </v>
   <v>       0.33333340       0.26666660       0.35149823 </v>
   <v>       0.33333340       0.46666660       0.35149823 </v>
   <v>       0.33333340       0.66666660       0.35149823 </v>
   <v>       0.33333340       0.86666660       0.35149823 </v>
   <v>       0.53333340       0.06666660       0.35149823 </v>
   <v>       0.53333340       0.26666660       0.35149823 </v>
   <v>       0.53333340       0.46666660       0.35149823 </v>
   <v>       0.53333340       0.66666660       0.35149823 </v>
   <v>       0.53333340       0.86666660       0.35149823 </v>
   <v>       0.73333340       0.06666660       0.35149823 </v>
   <v>       0.73333340       0.26666660       0.35149823 </v>
   <v>       0.73333340       0.46666660       0.35149823 </v>
   <v>       0.73333340       0.66666660       0.35149823 </v>
   <v>       0.73333340       0.86666660       0.35149823 </v>
   <v>       0.93333340       0.06666660       0.35149823 </v>
   <v>       0.93333340       0.26666660       0.35149823 </v>
   <v>       0.93333340       0.46666660       0.35149823 </v>
   <v>       0.93333340       0.66666660       0.35149823 </v>
   <v>       0.93333340       0.86666660       0.35149823 </v>
   <v>       0.06666660       0.13333340       0.00000000 </v>
   <v>       0.06666660       0.33333340       0.00000000 </v>
   <v>       0.06666660       0.53333340       0.00000000 </v>
   <v>       0.06666660       0.73333340       0.00000000 </v>
   <v>       0.06666660       0.93333340       0.00000000 </v>
   <v>       0.26666660       0.13333340       0.00000000 </v>
   <v>       0.26666660       0.33333340       0.00000000 </v>
   <v>       0.26666660       0.53333340       0.00000000 </v>
   <v>       0.26666660       0.73333340       0.00000000 </v>
   <v>       0.26666660       0.93333340       0.00000000 </v>
   <v>       0.46666660       0.13333340       0.00000000 </v>
   <v>       0.46666660       0.33333340       0.00000000 </v>
   <v>       0.46666660       0.53333340       0.00000000 </v>
   <v>       0.46666660       0.73333340       0.00000000 </v>
   <v>       0.46666660       0.93333340       0.00000000 </v>
   <v>       0.66666660       0.13333340       0.00000000 </v>
   <v>       0.66666660       0.33333340       0.00000000 </v>
   <v>       0.66666660       0.53333340       0.00000000 </v>
   <v>       0.66666660       0.73333340       0.00000000 </v>
   <v>       0.66666660       0.93333340       0.00000000 </v>
   <v>       0.86666660       0.13333340       0.00000000 </v>
   <v>       0.86666660       0.33333340       0.00000000 </v>
   <v>       0.86666660       0.53333340       0.00000000 </v>
   <v>       0.86666660       0.73333340       0.00000000 </v>
   <v>       0.86666660       0.93333340       0.00000000 </v>
   <v>       0.13333340       0.06666660       0.46902354 </v>
   <v>       0.13333340       0.26666660       0.46902354 </v>
   <v>       0.13333340       0.46666660       0.46902354 </v>
   <v>       0.13333340       0.66666660       0.46902354 </v>
   <v>       0.13333340       0.86666660       0.46902354 </v>
   <v>       0.33333340       0.06666660       0.46902354 </v>
   <v>       0.33333340       0.26666660       0.46902354 </v>
   <v>       0.33333340       0.46666660       0.46902354 </v>
   <v>       0.33333340       0.66666660       0.46902354 </v>
   <v>       0.33333340       0.86666660       0.46902354 </v>
   <v>       0.53333340       0.06666660       0.46902354 </v>
   <v>       0.53333340       0.26666660       0.46902354 </v>
   <v>       0.53333340       0.46666660       0.46902354 </v>
   <v>       0.53333340       0.66666660       0.46902354 </v>
   <v>       0.53333340       0.86666660       0.46902354 </v>
   <v>       0.73333340       0.06666660       0.46902354 </v>
   <v>       0.73333340       0.26666660       0.46902354 </v>
   <v>       0.73333340       0.46666660       0.46902354 </v>
   <v>       0.73333340       0.66666660       0.46902354 </v>
   <v>       0.73333340       0.86666660       0.46902354 </v>
   <v>       0.93333340       0.06666660       0.46902354 </v>
   <v>       0.93333340       0.26666660       0.46902354 </v>
   <v>       0.93333340       0.46666660       0.46902354 </v>
   <v>       0.93333340       0.66666660       0.46902354 </v>
   <v>       0.93333340       0.86666660       0.46902354 </v>
  </varray>
 </structure>
 <calculation>
  <scstep>
   <time name="dav">  730.58  731.02</time>
   <time name="total">  734.24  734.71</time>
   <energy>
    <i name="alphaZ">   2663.50501976 </i>
    <i name="ewald"> 179392.51435700 </i>
    <i name="hartreedc">-260947.82778207 </i>
    <i name="XCdc">   2448.29842199 </i>
    <i name="pawpsdc">  52926.14902547 </i>
    <i name="pawaedc"> -51276.01167565 </i>
    <i name="eentropy">     -0.08193121 </i>
    <i name="bandstr">  -5200.76402056 </i>
    <i name="atom">  90297.61965915 </i>
    <i name="e_fr_energy">  10303.40107388 </i>
    <i name="e_wo_entrp">  10303.48300509 </i>
    <i name="e_0_energy">  10303.44203949 </i>
   </energy>
  </scstep>
  <scstep>
   <time name="dav">  747.47  747.91</time>
   <time name="total">  747.47  747.92</time>
   <energy>
    <i name="e_fr_energy">   -102.09817288 </i>
    <i name="e_wo_entrp">   -102.09812831 </i>
    <i name="e_0_energy">   -102.09815060 </i>
   </energy>
  </scstep>
  <scstep>
   <time name="dav">  747.78  748.21</time>
   <time name="total">  747.78  748.22</time>
   <energy>
    <i name="e_fr_energy">  -1071.99102245 </i>
    <i name="e_wo_entrp">  -1071.99102245 </i>
    <i name="e_0_energy">  -1071.99102245 </i>
   </energy>
  </scstep>
  <scstep>
   <time name="dav">  776.77  777.22</time>
   <time name="total">  776.77  777.23</time>
   <energy>
    <i name="e_fr_energy">  -1106.95485242 </i>
    <i name="e_wo_entrp">  -1106.95485242 </i>
    <i name="e_0_energy">  -1106.95485242 </i>
   </energy>
  </scstep>
  <scstep>
   <time name="dav">  764.71  765.16</time>
   <time name="total">  775.15  775.63</time>
   <energy>
    <i name="e_fr_energy">  -1107.95864300 </i>
    <i name="e_wo_entrp">  -1107.95864300 </i>
    <i name="e_0_energy">  -1107.95864300 </i>
   </energy>
  </scstep>
  <scstep>
   <time name="dav">  811.85  812.33</time>
   <time name="total">  825.83  826.37</time>
   <energy>
    <i name="e_fr_energy">  -1085.81380406 </i>
    <i name="e_wo_entrp">  -1085.81380406 </i>
    <i name="e_0_energy">  -1085.81380406 </i>
   </energy>
  </scstep>
  <scstep>
   <time name="dav">  731.67  732.10</time>
   <time name="total">  745.64  746.14</time>
   <energy>
    <i name="e_fr_energy">  -1078.78709648 </i>
    <i name="e_wo_entrp">  -1078.78709648 </i>
    <i name="e_0_energy">  -1078.78709648 </i>
   </energy>
  </scstep>
  <scstep>
   <time name="dav">  736.39  736.82</time>
   <time name="total">  750.42  750.91</time>
   <energy>
    <i name="e_fr_energy">  -1074.83207531 </i>
    <i name="e_wo_entrp">  -1074.83207531 </i>
    <i name="e_0_energy">  -1074.83207531 </i>
   </energy>
  </scstep>
  <scstep>
   <time name="dav">  721.90  722.32</time>
   <time name="total">  735.88  736.37</time>
   <energy>
    <i name="e_fr_energy">  -1073.55413808 </i>
    <i name="e_wo_entrp">  -1073.55413808 </i>
    <i name="e_0_energy">  -1073.55413808 </i>
   </energy>
  </scstep>
  <scstep>
   <time name="dav">  717.05  717.47</time>
   <time name="total">  731.02  731.50</time>
   <energy>
    <i name="e_fr_energy">  -1073.47358949 </i>
    <i name="e_wo_entrp">  -1073.47358949 </i>
    <i name="e_0_energy">  -1073.47358949 </i>
   </energy>
  </scstep>
  <scstep>
   <time name="dav">  719.49  719.91</time>
   <time name="total">  733.61  734.10</time>
   <energy>
    <i name="e_fr_energy">  -1073.22576424 </i>
    <i name="e_wo_entrp">  -1073.22576424 </i>
    <i name="e_0_energy">  -1073.22576424 </i>
   </energy>
  </scstep>
  <scstep>
   <time name="dav">  746.23  746.66</time>
   <time name="total">  760.20  760.70</time>
   <energy>
    <i name="e_fr_energy">  -1073.22408173 </i>
    <i name="e_wo_entrp">  -1073.22408173 </i>
    <i name="e_0_energy">  -1073.22408173 </i>
   </energy>
  </scstep>
  <scstep>
   <time name="dav">  731.65  732.08</time>
   <time name="total">  745.65  746.15</time>
   <energy>
    <i name="e_fr_energy">  -1073.22109242 </i>
    <i name="e_wo_entrp">  -1073.22109242 </i>
    <i name="e_0_energy">  -1073.22109242 </i>
   </energy>
  </scstep>
  <scstep>
   <time name="dav">  741.56  741.99</time>
   <time name="total">  755.55  756.05</time>
   <energy>
    <i name="e_fr_energy">  -1073.22064927 </i>
    <i name="e_wo_entrp">  -1073.22064927 </i>
    <i name="e_0_energy">  -1073.22064927 </i>
   </energy>
  </scstep>
  <scstep>
   <time name="dav">  731.77  732.19</time>
   <time name="total">  745.78  746.27</time>
   <energy>
    <i name="e_fr_energy">  -1073.22098253 </i>
    <i name="e_wo_entrp">  -1073.22098253 </i>
    <i name="e_0_energy">  -1073.22098253 </i>
   </energy>
  </scstep>
  <scstep>
   <time name="dav">  734.59  735.02</time>
   <time name="total">  748.58  749.07</time>
   <energy>
    <i name="e_fr_energy">  -1073.22093344 </i>
    <i name="e_wo_entrp">  -1073.22093344 </i>
    <i name="e_0_energy">  -1073.22093344 </i>
   </energy>
  </scstep>
  <scstep>
   <time name="dav">  720.02  720.44</time>
   <time name="total">  734.11  734.60</time>
   <energy>
    <i name="e_fr_energy">  -1073.22089046 </i>
    <i name="e_wo_entrp">  -1073.22089046 </i>
    <i name="e_0_energy">  -1073.22089046 </i>
   </energy>
  </scstep>
  <scstep>
   <time name="dav">  674.26  674.65</time>
   <time name="total">  688.28  688.74</time>
   <energy>
    <i name="e_fr_energy">  -1073.22087960 </i>
    <i name="e_wo_entrp">  -1073.22087960 </i>
    <i name="e_0_energy">  -1073.22087960 </i>
   </energy>
  </scstep>
  <scstep>
   <time name="dav">  442.73  442.99</time>
   <time name="total">  446.35  446.64</time>
   <energy>
    <i name="alphaZ">   2663.50501976 </i>
    <i name="ewald"> 179392.51435700 </i>
    <i name="hartreedc">-261031.88608342 </i>
    <i name="XCdc">   2420.90992750 </i>
    <i name="pawpsdc">  56963.74584763 </i>
    <i name="pawaedc"> -55540.77518101 </i>
    <i name="eentropy">     -0.00000000 </i>
    <i name="bandstr"> -16238.85442290 </i>
    <i name="atom">  90297.61965915 </i>
    <i name="e_fr_energy">  -1073.22087630 </i>
    <i name="e_wo_entrp">  -1073.22087630 </i>
    <i name="e_0_energy">  -1073.22087630 </i>
   </energy>
  </scstep>
  <structure>
   <crystal>
    <varray name="basis" >
     <v>      15.95157981       0.00000000       0.00000000 </v>
     <v>      -7.97578990      13.81447335       0.00000000 </v>
     <v>       0.00000000       0.00000000      28.24983972 </v>
    </varray>
    <i name="volume">   6225.21022374 </i>
    <varray name="rec_basis" >
     <v>       0.06268972       0.03619392       0.00000000 </v>
     <v>       0.00000000       0.07238785       0.00000000 </v>
     <v>       0.00000000       0.00000000       0.03539843 </v>
    </varray>
   </crystal>
   <varray name="positions" >
    <v>       0.13333340       0.06666660       0.05539445 </v>
    <v>       0.13333340       0.26666660       0.05539445 </v>
    <v>       0.13333340       0.46666660       0.05539445 </v>
    <v>       0.13333340       0.66666660       0.05539445 </v>
    <v>       0.13333340       0.86666660       0.05539445 </v>
    <v>       0.33333340       0.06666660       0.05539445 </v>
    <v>       0.33333340       0.26666660       0.05539445 </v>
    <v>       0.33333340       0.46666660       0.05539445 </v>
    <v>       0.33333340       0.66666660       0.05539445 </v>
    <v>       0.33333340       0.86666660       0.05539445 </v>
    <v>       0.53333340       0.06666660       0.05539445 </v>
    <v>       0.53333340       0.26666660       0.05539445 </v>
    <v>       0.53333340       0.46666660       0.05539445 </v>
    <v>       0.53333340       0.66666660       0.05539445 </v>
    <v>       0.53333340       0.86666660       0.05539445 </v>
    <v>       0.73333340       0.06666660       0.05539445 </v>
    <v>       0.73333340       0.26666660       0.05539445 </v>
    <v>       0.73333340       0.46666660       0.05539445 </v>
    <v>       0.73333340       0.66666660       0.05539445 </v>
    <v>       0.73333340       0.86666660       0.05539445 </v>
    <v>       0.93333340       0.06666660       0.05539445 </v>
    <v>       0.93333340       0.26666660       0.05539445 </v>
    <v>       0.93333340       0.46666660       0.05539445 </v>
    <v>       0.93333340       0.66666660       0.05539445 </v>
    <v>       0.93333340       0.86666660       0.05539445 </v>
    <v>       0.06666660       0.13333340       0.41026088 </v>
    <v>       0.06666660       0.33333340       0.41026088 </v>
    <v>       0.06666660       0.53333340       0.41026088 </v>
    <v>       0.06666660       0.73333340       0.41026088 </v>
    <v>       0.06666660       0.93333340       0.41026088 </v>
    <v>       0.26666660       0.13333340       0.41026088 </v>
    <v>       0.26666660       0.33333340       0.41026088 </v>
    <v>       0.26666660       0.53333340       0.41026088 </v>
    <v>       0.26666660       0.73333340       0.41026088 </v>
    <v>       0.26666660       0.93333340       0.41026088 </v>
    <v>       0.46666660       0.13333340       0.41026088 </v>
    <v>       0.46666660       0.33333340       0.41026088 </v>
    <v>       0.46666660       0.53333340       0.41026088 </v>
    <v>       0.46666660       0.73333340       0.41026088 </v>
    <v>       0.46666660       0.93333340       0.41026088 </v>
    <v>       0.66666660       0.13333340       0.41026088 </v>
    <v>       0.66666660       0.33333340       0.41026088 </v>
    <v>       0.66666660       0.53333340       0.41026088 </v>
    <v>       0.66666660       0.73333340       0.41026088 </v>
    <v>       0.66666660       0.93333340       0.41026088 </v>
    <v>       0.86666660       0.13333340       0.41026088 </v>
    <v>       0.86666660       0.33333340       0.41026088 </v>
    <v>       0.86666660       0.53333340       0.41026088 </v>
    <v>       0.86666660       0.73333340       0.41026088 </v>
    <v>       0.86666660       0.93333340       0.41026088 </v>
    <v>       0.06666660       0.13333340       0.11078890 </v>
    <v>       0.06666660       0.33333340       0.11078890 </v>
    <v>       0.06666660       0.53333340       0.11078890 </v>
    <v>       0.06666660       0.73333340       0.11078890 </v>
    <v>       0.06666660       0.93333340       0.11078890 </v>
    <v>       0.26666660       0.13333340       0.11078890 </v>
    <v>       0.26666660       0.33333340       0.11078890 </v>
    <v>       0.26666660       0.53333340       0.11078890 </v>
    <v>       0.26666660       0.73333340       0.11078890 </v>
    <v>       0.26666660       0.93333340       0.11078890 </v>
    <v>       0.46666660       0.13333340       0.11078890 </v>
    <v>       0.46666660       0.33333340       0.11078890 </v>
    <v>       0.46666660       0.53333340       0.11078890 </v>
    <v>       0.46666660       0.73333340       0.11078890 </v>
    <v>       0.46666660       0.93333340       0.11078890 </v>
    <v>       0.66666660       0.13333340       0.11078890 </v>
    <v>       0.66666660       0.33333340       0.11078890 </v>
    <v>       0.66666660       0.53333340       0.11078890 </v>
    <v>       0.66666660       0.73333340       0.11078890 </v>
    <v>       0.66666660       0.93333340       0.11078890 </v>
    <v>       0.86666660       0.13333340       0.11078890 </v>
    <v>       0.86666660       0.33333340       0.11078890 </v>
    <v>       0.86666660       0.53333340       0.11078890 </v>
    <v>       0.86666660       0.73333340       0.11078890 </v>
    <v>       0.86666660       0.93333340       0.11078890 </v>
    <v>       0.13333340       0.06666660       0.35149823 </v>
    <v>       0.13333340       0.26666660       0.35149823 </v>
    <v>       0.13333340       0.46666660       0.35149823 </v>
    <v>       0.13333340       0.66666660       0.35149823 </v>
    <v>       0.13333340       0.86666660       0.35149823 </v>
    <v>       0.33333340       0.06666660       0.35149823 </v>
    <v>       0.33333340       0.26666660       0.35149823 </v>
    <v>       0.33333340       0.46666660       0.35149823 </v>
    <v>       0.33333340       0.66666660       0.35149823 </v>
    <v>       0.33333340       0.86666660       0.35149823 </v>
    <v>       0.53333340       0.06666660       0.35149823 </v>
    <v>       0.53333340       0.26666660       0.35149823 </v>
    <v>       0.53333340       0.46666660       0.35149823 </v>
    <v>       0.53333340       0.66666660       0.35149823 </v>
    <v>       0.53333340       0.86666660       0.35149823 </v>
    <v>       0.73333340       0.06666660       0.35149823 </v>
    <v>       0.73333340       0.26666660       0.35149823 </v>
    <v>       0.73333340       0.46666660       0.35149823 </v>
    <v>       0.73333340       0.66666660       0.35149823 </v>
    <v>       0.73333340       0.86666660       0.35149823 </v>
    <v>       0.93333340       0.06666660       0.35149823 </v>
    <v>       0.93333340       0.26666660       0.35149823 </v>
    <v>       0.93333340       0.46666660       0.35149823 </v>
    <v>       0.93333340       0.66666660       0.35149823 </v>
    <v>       0.93333340       0.86666660       0.35149823 </v>
    <v>       0.06666660       0.13333340       0.00000000 </v>
    <v>       0.06666660       0.33333340       0.00000000 </v>
    <v>       0.06666660       0.53333340       0.00000000 </v>
    <v>       0.06666660       0.73333340       0.00000000 </v>
    <v>       0.06666660       0.93333340       0.00000000 </v>
    <v>       0.26666660       0.13333340       0.00000000 </v>
    <v>       0.26666660       0.33333340       0.00000000 </v>
    <v>       0.26666660       0.53333340       0.00000000 </v>
    <v>       0.26666660       0.73333340       0.00000000 </v>
    <v>       0.26666660       0.93333340       0.00000000 </v>
    <v>       0.46666660       0.13333340       0.00000000 </v>
    <v>       0.46666660       0.33333340       0.00000000 </v>
    <v>       0.46666660       0.53333340       0.00000000 </v>
    <v>       0.46666660       0.73333340       0.00000000 </v>
    <v>       0.46666660       0.93333340       0.00000000 </v>
    <v>       0.66666660       0.13333340       0.00000000 </v>
    <v>       0.66666660       0.33333340       0.00000000 </v>
    <v>       0.66666660       0.53333340       0.00000000 </v>
    <v>       0.66666660       0.73333340       0.00000000 </v>
    <v>       0.66666660       0.93333340       0.00000000 </v>
    <v>       0.86666660       0.13333340       0.00000000 </v>
    <v>       0.86666660       0.33333340       0.00000000 </v>
    <v>       0.86666660       0.53333340       0.00000000 </v>
    <v>       0.86666660       0.73333340       0.00000000 </v>
    <v>       0.86666660       0.93333340       0.00000000 </v>
    <v>       0.13333340       0.06666660       0.46902354 </v>
    <v>       0.13333340       0.26666660       0.46902354 </v>
    <v>       0.13333340       0.46666660       0.46902354 </v>
    <v>       0.13333340       0.66666660       0.46902354 </v>
    <v>       0.13333340       0.86666660       0.46902354 </v>
    <v>       0.33333340       0.06666660       0.46902354 </v>
    <v>       0.33333340       0.26666660       0.46902354 </v>
    <v>       0.33333340       0.46666660       0.46902354 </v>
    <v>       0.33333340       0.66666660       0.46902354 </v>
    <v>       0.33333340       0.86666660       0.46902354 </v>
    <v>       0.53333340       0.06666660       0.46902354 </v>
    <v>       0.53333340       0.26666660       0.46902354 </v>
    <v>       0.53333340       0.46666660       0.46902354 </v>
    <v>       0.53333340       0.66666660       0.46902354 </v>
    <v>       0.53333340       0.86666660       0.46902354 </v>
    <v>       0.73333340       0.06666660       0.46902354 </v>
    <v>       0.73333340       0.26666660       0.46902354 </v>
    <v>       0.73333340       0.46666660       0.46902354 </v>
    <v>       0.73333340       0.66666660       0.46902354 </v>
    <v>       0.73333340       0.86666660       0.46902354 </v>
    <v>       0.93333340       0.06666660       0.46902354 </v>
    <v>       0.93333340       0.26666660       0.46902354 </v>
    <v>       0.93333340       0.46666660       0.46902354 </v>
    <v>       0.93333340       0.66666660       0.46902354 </v>
    <v>       0.93333340       0.86666660       0.46902354 </v>
   </varray>
  </structure>
  <varray name="forces" >
   <v>      -0.00000000      -0.00000000       3.00386422 </v>
   <v>      -0.00000000      -0.00000000       3.00386422 </v>
   <v>       0.00000000       0.00000000       3.00386422 </v>
   <v>      -0.00000000       0.00000000       3.00386422 </v>
   <v>      -0.00000000      -0.00000000       3.00386422 </v>
   <v>      -0.00000000      -0.00000000       3.00386422 </v>
   <v>       0.00000000      -0.00000000       3.00386422 </v>
   <v>       0.00000000      -0.00000000       3.00386422 </v>
   <v>       0.00000000       0.00000000       3.00386422 </v>
   <v>      -0.00000000      -0.00000000       3.00386422 </v>
   <v>      -0.00000000      -0.00000000       3.00386422 </v>
   <v>      -0.00000000       0.00000000       3.00386422 </v>
   <v>       0.00000000       0.00000000       3.00386422 </v>
   <v>      -0.00000000       0.00000000       3.00386422 </v>
   <v>       0.00000000      -0.00000000       3.00386422 </v>
   <v>      -0.00000000      -0.00000000       3.00386422 </v>
   <v>      -0.00000000       0.00000000       3.00386422 </v>
   <v>       0.00000000       0.00000000       3.00386422 </v>
   <v>       0.00000000       0.00000000       3.00386422 </v>
   <v>       0.00000000      -0.00000000       3.00386422 </v>
   <v>      -0.00000000      -0.00000000       3.00386422 </v>
   <v>      -0.00000000      -0.00000000       3.00386422 </v>
   <v>       0.00000000       0.00000000       3.00386422 </v>
   <v>       0.00000000       0.00000000       3.00386422 </v>
   <v>      -0.00000000      -0.00000000       3.00386422 </v>
   <v>       0.00000000       0.00000000      -2.73300061 </v>
   <v>      -0.00000000       0.00000000      -2.73300061 </v>
   <v>      -0.00000000       0.00000000      -2.73300061 </v>
   <v>       0.00000000       0.00000000      -2.73300061 </v>
   <v>       0.00000000      -0.00000000      -2.73300061 </v>
   <v>       0.00000000       0.00000000      -2.73300061 </v>
   <v>      -0.00000000      -0.00000000      -2.73300061 </v>
   <v>       0.00000000      -0.00000000      -2.73300061 </v>
   <v>       0.00000000       0.00000000      -2.73300061 </v>
   <v>       0.00000000      -0.00000000      -2.73300061 </v>
   <v>       0.00000000       0.00000000      -2.73300061 </v>
   <v>      -0.00000000      -0.00000000      -2.73300061 </v>
   <v>      -0.00000000       0.00000000      -2.73300061 </v>
   <v>       0.00000000       0.00000000      -2.73300061 </v>
   <v>       0.00000000      -0.00000000      -2.73300061 </v>
   <v>       0.00000000      -0.00000000      -2.73300061 </v>
   <v>      -0.00000000      -0.00000000      -2.73300061 </v>
   <v>      -0.00000000      -0.00000000      -2.73300061 </v>
   <v>      -0.00000000       0.00000000      -2.73300061 </v>
   <v>       0.00000000      -0.00000000      -2.73300061 </v>
   <v>       0.00000000      -0.00000000      -2.73300061 </v>
   <v>      -0.00000000       0.00000000      -2.73300061 </v>
   <v>      -0.00000000      -0.00000000      -2.73300061 </v>
   <v>       0.00000000       0.00000000      -2.73300061 </v>
   <v>       0.00000000       0.00000000      -2.73300061 </v>
   <v>       0.00000000       0.00000000       0.01097658 </v>
   <v>       0.00000000      -0.00000000       0.01097658 </v>
   <v>       0.00000000      -0.00000000       0.01097658 </v>
   <v>       0.00000000       0.00000000       0.01097658 </v>
   <v>       0.00000000       0.00000000       0.01097658 </v>
   <v>       0.00000000      -0.00000000       0.01097658 </v>
   <v>      -0.00000000       0.00000000       0.01097658 </v>
   <v>       0.00000000       0.00000000       0.01097658 </v>
   <v>       0.00000000      -0.00000000       0.01097658 </v>
   <v>       0.00000000       0.00000000       0.01097658 </v>
   <v>      -0.00000000      -0.00000000       0.01097658 </v>
   <v>       0.00000000      -0.00000000       0.01097658 </v>
   <v>       0.00000000       0.00000000       0.01097658 </v>
   <v>       0.00000000       0.00000000       0.01097658 </v>
   <v>       0.00000000       0.00000000       0.01097658 </v>
   <v>       0.00000000       0.00000000       0.01097658 </v>
   <v>       0.00000000      -0.00000000       0.01097658 </v>
   <v>       0.00000000       0.00000000       0.01097658 </v>
   <v>       0.00000000       0.00000000       0.01097658 </v>
   <v>       0.00000000       0.00000000       0.01097658 </v>
   <v>       0.00000000      -0.00000000       0.01097658 </v>
   <v>       0.00000000       0.00000000       0.01097658 </v>
   <v>       0.00000000       0.00000000       0.01097658 </v>
   <v>       0.00000000       0.00000000       0.01097658 </v>
   <v>       0.00000000       0.00000000       0.01097658 </v>
   <v>      -0.00000000      -0.00000000       1.51313550 </v>
   <v>      -0.00000000      -0.00000000       1.51313550 </v>
   <v>       0.00000000       0.00000000       1.51313550 </v>
   <v>      -0.00000000      -0.00000000       1.51313550 </v>
   <v>      -0.00000000      -0.00000000       1.51313550 </v>
   <v>      -0.00000000      -0.00000000       1.51313550 </v>
   <v>      -0.00000000      -0.00000000       1.51313550 </v>
   <v>      -0.00000000      -0.00000000       1.51313550 </v>
   <v>      -0.00000000      -0.00000000       1.51313550 </v>
   <v>      -0.00000000      -0.00000000       1.51313550 </v>
   <v>      -0.00000000      -0.00000000       1.51313550 </v>
   <v>      -0.00000000       0.00000000       1.51313550 </v>
   <v>       0.00000000      -0.00000000       1.51313550 </v>
   <v>       0.00000000      -0.00000000       1.51313550 </v>
   <v>      -0.00000000      -0.00000000       1.51313550 </v>
   <v>      -0.00000000      -0.00000000       1.51313550 </v>
   <v>      -0.00000000      -0.00000000       1.51313550 </v>
   <v>       0.00000000      -0.00000000       1.51313550 </v>
   <v>       0.00000000      -0.00000000       1.51313550 </v>
   <v>      -0.00000000      -0.00000000       1.51313550 </v>
   <v>      -0.00000000      -0.00000000       1.51313550 </v>
   <v>      -0.00000000       0.00000000       1.51313550 </v>
   <v>       0.00000000       0.00000000       1.51313550 </v>
   <v>       0.00000000      -0.00000000       1.51313550 </v>
   <v>      -0.00000000       0.00000000       1.51313550 </v>
   <v>      -0.00000000       0.00000000      -2.99976667 </v>
   <v>      -0.00000000       0.00000000      -2.99976667 </v>
   <v>      -0.00000000       0.00000000      -2.99976667 </v>
   <v>      -0.00000000       0.00000000      -2.99976667 </v>
   <v>      -0.00000000       0.00000000      -2.99976667 </v>
   <v>      -0.00000000       0.00000000      -2.99976667 </v>
   <v>      -0.00000000       0.00000000      -2.99976667 </v>
   <v>      -0.00000000       0.00000000      -2.99976667 </v>
   <v>      -0.00000000       0.00000000      -2.99976667 </v>
   <v>      -0.00000000      -0.00000000      -2.99976667 </v>
   <v>      -0.00000000       0.00000000      -2.99976667 </v>
   <v>      -0.00000000       0.00000000      -2.99976667 </v>
   <v>      -0.00000000      -0.00000000      -2.99976667 </v>
   <v>      -0.00000000      -0.00000000      -2.99976667 </v>
   <v>      -0.00000000       0.00000000      -2.99976667 </v>
   <v>      -0.00000000       0.00000000      -2.99976667 </v>
   <v>      -0.00000000       0.00000000      -2.99976667 </v>
   <v>      -0.00000000       0.00000000      -2.99976667 </v>
   <v>       0.00000000       0.00000000      -2.99976667 </v>
   <v>      -0.00000000      -0.00000000      -2.99976667 </v>
   <v>      -0.00000000       0.00000000      -2.99976667 </v>
   <v>      -0.00000000       0.00000000      -2.99976667 </v>
   <v>      -0.00000000      -0.00000000      -2.99976667 </v>
   <v>      -0.00000000       0.00000000      -2.99976667 </v>
   <v>      -0.00000000       0.00000000      -2.99976667 </v>
   <v>      -0.00000000       0.00000000       1.20479097 </v>
   <v>       0.00000000       0.00000000       1.20479097 </v>
   <v>       0.00000000      -0.00000000       1.20479097 </v>
   <v>      -0.00000000       0.00000000       1.20479097 </v>
   <v>      -0.00000000       0.00000000       1.20479097 </v>
   <v>      -0.00000000       0.00000000       1.20479097 </v>
   <v>       0.00000000       0.00000000       1.20479097 </v>
   <v>       0.00000000       0.00000000       1.20479097 </v>
   <v>      -0.00000000       0.00000000       1.20479097 </v>
   <v>      -0.00000000       0.00000000       1.20479097 </v>
   <v>      -0.00000000      -0.00000000       1.20479097 </v>
   <v>       0.00000000       0.00000000       1.20479097 </v>
   <v>       0.00000000       0.00000000       1.20479097 </v>
   <v>      -0.00000000       0.00000000       1.20479097 </v>
   <v>      -0.00000000       0.00000000       1.20479097 </v>
   <v>      -0.00000000       0.00000000       1.20479097 </v>
   <v>       0.00000000       0.00000000       1.20479097 </v>
   <v>       0.00000000       0.00000000       1.20479097 </v>
   <v>      -0.00000000      -0.00000000       1.20479097 </v>
   <v>      -0.00000000       0.00000000       1.20479097 </v>
   <v>      -0.00000000       0.00000000       1.20479097 </v>
   <v>      -0.00000000       0.00000000       1.20479097 </v>
   <v>       0.00000000      -0.00000000       1.20479097 </v>
   <v>      -0.00000000       0.00000000       1.20479097 </v>
   <v>      -0.00000000       0.00000000       1.20479097 </v>
  </varray>
  <varray name="stress" >
   <v>      24.34113039       0.00000000      -0.00000000 </v>
   <v>       0.00000000      24.34113039      -0.00000000 </v>
   <v>      -0.00000000       0.00000000      25.65240226 </v>
  </varray>
  <energy>
   <i name="e_fr_energy">  -1124.45380598 </i>
   <i name="e_wo_entrp">  -1124.45380598 </i>
   <i name="e_0_energy">     -0.00000000 </i>
  </energy>
  <time name="totalsc">15331.8715342.51</time>
 </calculation>
 <calculation>
  <scstep>
   <time name="dav">  673.44  673.84</time>
   <time name="total">  687.46  687.92</time>
   <energy>
    <i name="alphaZ">   2663.50501976 </i>
    <i name="ewald"> 179774.28891698 </i>
    <i name="hartreedc">-261478.40674143 </i>
    <i name="XCdc">   2415.09577762 </i>
    <i name="pawpsdc">  56963.53643500 </i>
    <i name="pawaedc"> -55540.56178958 </i>
    <i name="eentropy">     -0.00000000 </i>
    <i name="bandstr"> -16153.04825037 </i>
    <i name="atom">  90297.61965915 </i>
    <i name="e_fr_energy">  -1057.97097287 </i>
    <i name="e_wo_entrp">  -1057.97097287 </i>
    <i name="e_0_energy">  -1057.97097287 </i>
   </energy>
  </scstep>
  <scstep>
   <time name="dav">  654.54  654.92</time>
   <time name="total">  668.63  669.08</time>
   <energy>
    <i name="e_fr_energy">  -1080.94192237 </i>
    <i name="e_wo_entrp">  -1080.94192237 </i>
    <i name="e_0_energy">  -1080.94192237 </i>
   </energy>
  </scstep>
  <scstep>
   <time name="dav">  734.25  734.68</time>
   <time name="total">  748.24  748.73</time>
   <energy>
    <i name="e_fr_energy">  -1081.02778815 </i>
    <i name="e_wo_entrp">  -1081.02778815 </i>
    <i name="e_0_energy">  -1081.02778815 </i>
   </energy>
  </scstep>
  <scstep>
   <time name="dav">  738.65  739.08</time>
   <time name="total">  752.77  753.26</time>
   <energy>
    <i name="e_fr_energy">  -1080.92312415 </i>
    <i name="e_wo_entrp">  -1080.92312415 </i>
    <i name="e_0_energy">  -1080.92312415 </i>
   </energy>
  </scstep>
  <scstep>
   <time name="dav">  765.54  765.98</time>
   <time name="total">  779.64  780.15</time>
   <energy>
    <i name="e_fr_energy">  -1080.91780376 </i>
    <i name="e_wo_entrp">  -1080.91780376 </i>
    <i name="e_0_energy">  -1080.91780376 </i>
   </energy>
  </scstep>
  <scstep>
   <time name="dav">  733.87  734.30</time>
   <time name="total">  747.87  748.37</time>
   <energy>
    <i name="e_fr_energy">  -1080.90955793 </i>
    <i name="e_wo_entrp">  -1080.90955793 </i>
    <i name="e_0_energy">  -1080.90955793 </i>
   </energy>
  </scstep>
  <scstep>
   <time name="dav">  738.78  739.22</time>
   <time name="total">  752.84  753.34</time>
   <energy>
    <i name="e_fr_energy">  -1080.90812933 </i>
    <i name="e_wo_entrp">  -1080.90812933 </i>
    <i name="e_0_energy">  -1080.90812933 </i>
   </energy>
  </scstep>
  <scstep>
   <time name="dav">  729.57  729.99</time>
   <time name="total">  743.59  744.09</time>
   <energy>
    <i name="e_fr_energy">  -1080.90782314 </i>
    <i name="e_wo_entrp">  -1080.90782314 </i>
    <i name="e_0_energy">  -1080.90782314 </i>
   </energy>
  </scstep>
  <scstep>
   <time name="dav">  736.87  737.30</time>
   <time name="total">  750.93  751.42</time>
   <energy>
    <i name="e_fr_energy">  -1080.90767074 </i>
    <i name="e_wo_entrp">  -1080.90767074 </i>
    <i name="e_0_energy">  -1080.90767074 </i>
   </energy>
  </scstep>
  <scstep>
   <time name="dav">  737.02  737.45</time>
   <time name="total">  751.10  751.59</time>
   <energy>
    <i name="e_fr_energy">  -1080.90763129 </i>
    <i name="e_wo_entrp">  -1080.90763129 </i>
    <i name="e_0_energy">  -1080.90763129 </i>
   </energy>
  </scstep>
  <scstep>
   <time name="dav">  681.43  681.83</time>
   <time name="total">  695.53  696.00</time>
   <energy>
    <i name="e_fr_energy">  -1080.90761151 </i>
    <i name="e_wo_entrp">  -1080.90761151 </i>
    <i name="e_0_energy">  -1080.90761151 </i>
   </energy>
  </scstep>
  <scstep>
   <time name="dav">  683.65  684.05</time>
   <time name="total">  687.27  687.71</time>
   <energy>
    <i name="alphaZ">   2663.50501976 </i>
    <i name="ewald"> 179774.28891698 </i>
    <i name="hartreedc">-261520.90124139 </i>
    <i name="XCdc">   2415.48214587 </i>
    <i name="pawpsdc">  56553.41807288 </i>
    <i name="pawaedc"> -55126.37293777 </i>
    <i name="eentropy">     -0.00000000 </i>
    <i name="bandstr"> -16137.94724872 </i>
    <i name="atom">  90297.61965915 </i>
    <i name="e_fr_energy">  -1080.90761325 </i>
    <i name="e_wo_entrp">  -1080.90761325 </i>
    <i name="e_0_energy">  -1080.90761325 </i>
   </energy>
  </scstep>
  <structure>
   <crystal>
    <varray name="basis" >
     <v>      15.95157981       0.00000000       0.00000000 </v>
     <v>      -7.97578990      13.81447335       0.00000000 </v>
     <v>       0.00000000       0.00000000      28.24983972 </v>
    </varray>
    <i name="volume">   6225.21022374 </i>
    <varray name="rec_basis" >
     <v>       0.06268972       0.03619392       0.00000000 </v>
     <v>       0.00000000       0.07238785       0.00000000 </v>
     <v>       0.00000000       0.00000000       0.03539843 </v>
    </varray>
   </crystal>
   <varray name="positions" >
    <v>       0.13333340       0.06666660       0.05847229 </v>
    <v>       0.13333340       0.26666660       0.05847229 </v>
    <v>       0.13333340       0.46666660       0.05847229 </v>
    <v>       0.13333340       0.66666660       0.05847229 </v>
    <v>       0.13333340       0.86666660       0.05847229 </v>
    <v>       0.33333340       0.06666660       0.05847229 </v>
    <v>       0.33333340       0.26666660       0.05847229 </v>
    <v>       0.33333340       0.46666660       0.05847229 </v>
    <v>       0.33333340       0.66666660       0.05847229 </v>
    <v>       0.33333340       0.86666660       0.05847229 </v>
    <v>       0.53333340       0.06666660       0.05847229 </v>
    <v>       0.53333340       0.26666660       0.05847229 </v>
    <v>       0.53333340       0.46666660       0.05847229 </v>
    <v>       0.53333340       0.66666660       0.05847229 </v>
    <v>       0.53333340       0.86666660       0.05847229 </v>
    <v>       0.73333340       0.06666660       0.05847229 </v>
    <v>       0.73333340       0.26666660       0.05847229 </v>
    <v>       0.73333340       0.46666660       0.05847229 </v>
    <v>       0.73333340       0.66666660       0.05847229 </v>
    <v>       0.73333340       0.86666660       0.05847229 </v>
    <v>       0.93333340       0.06666660       0.05847229 </v>
    <v>       0.93333340       0.26666660       0.05847229 </v>
    <v>       0.93333340       0.46666660       0.05847229 </v>
    <v>       0.93333340       0.66666660       0.05847229 </v>
    <v>       0.93333340       0.86666660       0.05847229 </v>
    <v>       0.06666660       0.13333340       0.40746057 </v>
    <v>       0.06666660       0.33333340       0.40746057 </v>
    <v>       0.06666660       0.53333340       0.40746057 </v>
    <v>       0.06666660       0.73333340       0.40746057 </v>
    <v>       0.06666660       0.93333340       0.40746057 </v>
    <v>       0.26666660       0.13333340       0.40746057 </v>
    <v>       0.26666660       0.33333340       0.40746057 </v>
    <v>       0.26666660       0.53333340       0.40746057 </v>
    <v>       0.26666660       0.73333340       0.40746057 </v>
    <v>       0.26666660       0.93333340       0.40746057 </v>
    <v>       0.46666660       0.13333340       0.40746057 </v>
    <v>       0.46666660       0.33333340       0.40746057 </v>
    <v>       0.46666660       0.53333340       0.40746057 </v>
    <v>       0.46666660       0.73333340       0.40746057 </v>
    <v>       0.46666660       0.93333340       0.40746057 </v>
    <v>       0.66666660       0.13333340       0.40746057 </v>
    <v>       0.66666660       0.33333340       0.40746057 </v>
    <v>       0.66666660       0.53333340       0.40746057 </v>
    <v>       0.66666660       0.73333340       0.40746057 </v>
    <v>       0.66666660       0.93333340       0.40746057 </v>
    <v>       0.86666660       0.13333340       0.40746057 </v>
    <v>       0.86666660       0.33333340       0.40746057 </v>
    <v>       0.86666660       0.53333340       0.40746057 </v>
    <v>       0.86666660       0.73333340       0.40746057 </v>
    <v>       0.86666660       0.93333340       0.40746057 </v>
    <v>       0.06666660       0.13333340       0.11080015 </v>
    <v>       0.06666660       0.33333340       0.11080015 </v>
    <v>       0.06666660       0.53333340       0.11080015 </v>
    <v>       0.06666660       0.73333340       0.11080015 </v>
    <v>       0.06666660       0.93333340       0.11080015 </v>
    <v>       0.26666660       0.13333340       0.11080015 </v>
    <v>       0.26666660       0.33333340       0.11080015 </v>
    <v>       0.26666660       0.53333340       0.11080015 </v>
    <v>       0.26666660       0.73333340       0.11080015 </v>
    <v>       0.26666660       0.93333340       0.11080015 </v>
    <v>       0.46666660       0.13333340       0.11080015 </v>
    <v>       0.46666660       0.33333340       0.11080015 </v>
    <v>       0.46666660       0.53333340       0.11080015 </v>
    <v>       0.46666660       0.73333340       0.11080015 </v>
    <v>       0.46666660       0.93333340       0.11080015 </v>
    <v>       0.66666660       0.13333340       0.11080015 </v>
    <v>       0.66666660       0.33333340       0.11080015 </v>
    <v>       0.66666660       0.53333340       0.11080015 </v>
    <v>       0.66666660       0.73333340       0.11080015 </v>
    <v>       0.66666660       0.93333340       0.11080015 </v>
    <v>       0.86666660       0.13333340       0.11080015 </v>
    <v>       0.86666660       0.33333340       0.11080015 </v>
    <v>       0.86666660       0.53333340       0.11080015 </v>
    <v>       0.86666660       0.73333340       0.11080015 </v>
    <v>       0.86666660       0.93333340       0.11080015 </v>
    <v>       0.13333340       0.06666660       0.35304863 </v>
    <v>       0.13333340       0.26666660       0.35304863 </v>
    <v>       0.13333340       0.46666660       0.35304863 </v>
    <v>       0.13333340       0.66666660       0.35304863 </v>
    <v>       0.13333340       0.86666660       0.35304863 </v>
    <v>       0.33333340       0.06666660       0.35304863 </v>
    <v>       0.33333340       0.26666660       0.35304863 </v>
    <v>       0.33333340       0.46666660       0.35304863 </v>
    <v>       0.33333340       0.66666660       0.35304863 </v>
    <v>       0.33333340       0.86666660       0.35304863 </v>
    <v>       0.53333340       0.06666660       0.35304863 </v>
    <v>       0.53333340       0.26666660       0.35304863 </v>
    <v>       0.53333340       0.46666660       0.35304863 </v>
    <v>       0.53333340       0.66666660       0.35304863 </v>
    <v>       0.53333340       0.86666660       0.35304863 </v>
    <v>       0.73333340       0.06666660       0.35304863 </v>
    <v>       0.73333340       0.26666660       0.35304863 </v>
    <v>       0.73333340       0.46666660       0.35304863 </v>
    <v>       0.73333340       0.66666660       0.35304863 </v>
    <v>       0.73333340       0.86666660       0.35304863 </v>
    <v>       0.93333340       0.06666660       0.35304863 </v>
    <v>       0.93333340       0.26666660       0.35304863 </v>
    <v>       0.93333340       0.46666660       0.35304863 </v>
    <v>       0.93333340       0.66666660       0.35304863 </v>
    <v>       0.93333340       0.86666660       0.35304863 </v>
    <v>       0.06666660       0.13333340      -0.00307365 </v>
    <v>       0.06666660       0.33333340      -0.00307365 </v>
    <v>       0.06666660       0.53333340      -0.00307365 </v>
    <v>       0.06666660       0.73333340      -0.00307365 </v>
    <v>       0.06666660       0.93333340      -0.00307365 </v>
    <v>       0.26666660       0.13333340      -0.00307365 </v>
    <v>       0.26666660       0.33333340      -0.00307365 </v>
    <v>       0.26666660       0.53333340      -0.00307365 </v>
    <v>       0.26666660       0.73333340      -0.00307365 </v>
    <v>       0.26666660       0.93333340      -0.00307365 </v>
    <v>       0.46666660       0.13333340      -0.00307365 </v>
    <v>       0.46666660       0.33333340      -0.00307365 </v>
    <v>       0.46666660       0.53333340      -0.00307365 </v>
    <v>       0.46666660       0.73333340      -0.00307365 </v>
    <v>       0.46666660       0.93333340      -0.00307365 </v>
    <v>       0.66666660       0.13333340      -0.00307365 </v>
    <v>       0.66666660       0.33333340      -0.00307365 </v>
    <v>       0.66666660       0.53333340      -0.00307365 </v>
    <v>       0.66666660       0.73333340      -0.00307365 </v>
    <v>       0.66666660       0.93333340      -0.00307365 </v>
    <v>       0.86666660       0.13333340      -0.00307365 </v>
    <v>       0.86666660       0.33333340      -0.00307365 </v>
    <v>       0.86666660       0.53333340      -0.00307365 </v>
    <v>       0.86666660       0.73333340      -0.00307365 </v>
    <v>       0.86666660       0.93333340      -0.00307365 </v>
    <v>       0.13333340       0.06666660       0.47025800 </v>
    <v>       0.13333340       0.26666660       0.47025800 </v>
    <v>       0.13333340       0.46666660       0.47025800 </v>
    <v>       0.13333340       0.66666660       0.47025800 </v>
    <v>       0.13333340       0.86666660       0.47025800 </v>
    <v>       0.33333340       0.06666660       0.47025800 </v>
    <v>       0.33333340       0.26666660       0.47025800 </v>
    <v>       0.33333340       0.46666660       0.47025800 </v>
    <v>       0.33333340       0.66666660       0.47025800 </v>
    <v>       0.33333340       0.86666660       0.47025800 </v>
    <v>       0.53333340       0.06666660       0.47025800 </v>
    <v>       0.53333340       0.26666660       0.47025800 </v>
    <v>       0.53333340       0.46666660       0.47025800 </v>
    <v>       0.53333340       0.66666660       0.47025800 </v>
    <v>       0.53333340       0.86666660       0.47025800 </v>
    <v>       0.73333340       0.06666660       0.47025800 </v>
    <v>       0.73333340       0.26666660       0.47025800 </v>
    <v>       0.73333340       0.46666660       0.47025800 </v>
    <v>       0.73333340       0.66666660       0.47025800 </v>
    <v>       0.73333340       0.86666660       0.47025800 </v>
    <v>       0.93333340       0.06666660       0.47025800 </v>
    <v>       0.93333340       0.26666660       0.47025800 </v>
    <v>       0.93333340       0.46666660       0.47025800 </v>
    <v>       0.93333340       0.66666660       0.47025800 </v>
    <v>       0.93333340       0.86666660       0.47025800 </v>
   </varray>
  </structure>
  <varray name="forces" >
   <v>      -0.00000000      -0.00000000      -1.27096434 </v>
   <v>      -0.00000000      -0.00000000      -1.27096434 </v>
   <v>      -0.00000000      -0.00000000      -1.27096434 </v>
   <v>      -0.00000000       0.00000000      -1.27096434 </v>
   <v>      -0.00000000       0.00000000      -1.27096434 </v>
   <v>      -0.00000000      -0.00000000      -1.27096434 </v>
   <v>      -0.00000000       0.00000000      -1.27096434 </v>
   <v>      -0.00000000      -0.00000000      -1.27096434 </v>
   <v>      -0.00000000       0.00000000      -1.27096434 </v>
   <v>      -0.00000000       0.00000000      -1.27096434 </v>
   <v>      -0.00000000      -0.00000000      -1.27096434 </v>
   <v>      -0.00000000      -0.00000000      -1.27096434 </v>
   <v>      -0.00000000      -0.00000000      -1.27096434 </v>
   <v>      -0.00000000       0.00000000      -1.27096434 </v>
   <v>      -0.00000000       0.00000000      -1.27096434 </v>
   <v>      -0.00000000      -0.00000000      -1.27096434 </v>
   <v>      -0.00000000      -0.00000000      -1.27096434 </v>
   <v>      -0.00000000      -0.00000000      -1.27096434 </v>
   <v>      -0.00000000       0.00000000      -1.27096434 </v>
   <v>      -0.00000000       0.00000000      -1.27096434 </v>
   <v>      -0.00000000      -0.00000000      -1.27096434 </v>
   <v>      -0.00000000      -0.00000000      -1.27096434 </v>
   <v>      -0.00000000      -0.00000000      -1.27096434 </v>
   <v>      -0.00000000       0.00000000      -1.27096434 </v>
   <v>      -0.00000000       0.00000000      -1.27096434 </v>
   <v>      -0.00000000      -0.00000000       0.85207220 </v>
   <v>      -0.00000000      -0.00000000       0.85207220 </v>
   <v>      -0.00000000       0.00000000       0.85207220 </v>
   <v>      -0.00000000      -0.00000000       0.85207220 </v>
   <v>      -0.00000000      -0.00000000       0.85207220 </v>
   <v>      -0.00000000      -0.00000000       0.85207220 </v>
   <v>      -0.00000000       0.00000000       0.85207220 </v>
   <v>      -0.00000000       0.00000000       0.85207220 </v>
   <v>      -0.00000000       0.00000000       0.85207220 </v>
   <v>       0.00000000      -0.00000000       0.85207220 </v>
   <v>      -0.00000000      -0.00000000       0.85207220 </v>
   <v>      -0.00000000       0.00000000       0.85207220 </v>
   <v>      -0.00000000       0.00000000       0.85207220 </v>
   <v>      -0.00000000      -0.00000000       0.85207220 </v>
   <v>      -0.00000000      -0.00000000       0.85207220 </v>
   <v>      -0.00000000      -0.00000000       0.85207220 </v>
   <v>      -0.00000000       0.00000000       0.85207220 </v>
   <v>      -0.00000000       0.00000000       0.85207220 </v>
   <v>      -0.00000000      -0.00000000       0.85207220 </v>
   <v>      -0.00000000       0.00000000       0.85207220 </v>
   <v>       0.00000000      -0.00000000       0.85207220 </v>
   <v>       0.00000000      -0.00000000       0.85207220 </v>
   <v>      -0.00000000       0.00000000       0.85207220 </v>
   <v>      -0.00000000      -0.00000000       0.85207220 </v>
   <v>      -0.00000000       0.00000000       0.85207220 </v>
   <v>       0.00000000       0.00000000       1.21855026 </v>
   <v>       0.00000000       0.00000000       1.21855026 </v>
   <v>       0.00000000      -0.00000000       1.21855026 </v>
   <v>       0.00000000       0.00000000       1.21855026 </v>
[...]
       <r>   -24.5128     0.0000   150.0000 </r>
       <r>   -24.3519     0.0000   150.0000 </r>
       <r>   -24.1910     0.0000   150.0000 </r>
       <r>   -24.0301     0.0000   150.0000 </r>
       <r>   -23.8692     0.0000   150.0000 </r>
       <r>   -23.7083     0.0000   150.0000 </r>
       <r>   -23.5474     0.0000   150.0000 </r>
       <r>   -23.3865     0.0000   150.0000 </r>
       <r>   -23.2255     0.0000   150.0000 </r>
       <r>   -23.0646     0.0000   150.0000 </r>
       <r>   -22.9037     0.0000   150.0000 </r>
       <r>   -22.7428     0.0000   150.0000 </r>
       <r>   -22.5819     0.0000   150.0000 </r>
       <r>   -22.4210     0.0000   150.0000 </r>
       <r>   -22.2601     0.0000   150.0000 </r>
       <r>   -22.0992     0.0000   150.0000 </r>
       <r>   -21.9383     0.0000   150.0000 </r>
       <r>   -21.7774     0.0000   150.0000 </r>
       <r>   -21.6165     0.0000   150.0000 </r>
       <r>   -21.4556     0.0000   150.0000 </r>
       <r>   -21.2947     0.0000   150.0000 </r>
       <r>   -21.1338     0.0000   150.0000 </r>
       <r>   -20.9729     0.0000   150.0000 </r>
       <r>   -20.8120     0.0000   150.0000 </r>
       <r>   -20.6511     0.0000   150.0000 </r>
       <r>   -20.4902     0.0000   150.0000 </r>
       <r>   -20.3293     0.0000   150.0000 </r>
       <r>   -20.1684     0.0000   150.0000 </r>
       <r>   -20.0075     0.0000   150.0000 </r>
       <r>   -19.8465     0.0000   150.0000 </r>
       <r>   -19.6856     0.0000   150.0000 </r>
       <r>   -19.5247     0.0000   150.0000 </r>
       <r>   -19.3638     0.0000   150.0000 </r>
       <r>   -19.2029     0.0000   150.0000 </r>
       <r>   -19.0420     0.0000   150.0000 </r>
       <r>   -18.8811     0.0000   150.0000 </r>
       <r>   -18.7202     0.0000   150.0000 </r>
       <r>   -18.5593     0.0000   150.0000 </r>
       <r>   -18.3984     0.0000   150.0000 </r>
       <r>   -18.2375     0.0000   150.0000 </r>
       <r>   -18.0766     0.0000   150.0000 </r>
       <r>   -17.9157     0.0000   150.0000 </r>
       <r>   -17.7548     0.0000   150.0000 </r>
       <r>   -17.5939     0.0000   150.0000 </r>
       <r>   -17.4330     0.0000   150.0000 </r>
       <r>   -17.2721     0.0000   150.0000 </r>
       <r>   -17.1112     0.0000   150.0000 </r>
       <r>   -16.9503     0.0000   150.0000 </r>
       <r>   -16.7894     0.0000   150.0000 </r>
       <r>   -16.6285     0.0000   150.0000 </r>
       <r>   -16.4675     0.0000   150.0000 </r>
       <r>   -16.3066     0.0000   150.0000 </r>
       <r>   -16.1457     0.0000   150.0000 </r>
       <r>   -15.9848     0.0000   150.0000 </r>
       <r>   -15.8239     0.0000   150.0000 </r>
       <r>   -15.6630     0.0000   150.0000 </r>
       <r>   -15.5021     0.0000   150.0000 </r>
       <r>   -15.3412     0.0001   150.0000 </r>
       <r>   -15.1803     1.1781   150.1896 </r>
       <r>   -15.0194     4.7764   150.9581 </r>
       <r>   -14.8585     9.1496   152.4303 </r>
       <r>   -14.6976    11.9370   154.3511 </r>
       <r>   -14.5367    11.4073   156.1866 </r>
       <r>   -14.3758    12.8657   158.2567 </r>
       <r>   -14.2149    12.7066   160.3013 </r>
       <r>   -14.0540    15.6991   162.8273 </r>
       <r>   -13.8931    15.8061   165.3706 </r>
       <r>   -13.7322    16.3754   168.0055 </r>
       <r>   -13.5713    30.7579   172.9546 </r>
       <r>   -13.4104    47.7417   180.6364 </r>
       <r>   -13.2495    48.0557   188.3688 </r>
       <r>   -13.0885    62.6019   198.4418 </r>
       <r>   -12.9276    79.4331   211.2229 </r>
       <r>   -12.7667   103.3351   227.8500 </r>
       <r>   -12.6058    96.1423   243.3198 </r>
       <r>   -12.4449    38.7267   249.5511 </r>
       <r>   -12.2840     2.7899   250.0000 </r>
       <r>   -12.1231     0.0000   250.0000 </r>
       <r>   -11.9622     0.0000   250.0000 </r>
       <r>   -11.8013     0.0000   250.0000 </r>
       <r>   -11.6404     0.0000   250.0000 </r>
       <r>   -11.4795     0.0000   250.0000 </r>
       <r>   -11.3186     0.0000   250.0000 </r>
       <r>   -11.1577     0.0000   250.0000 </r>
       <r>   -10.9968     0.0000   250.0000 </r>
       <r>   -10.8359     0.0000   250.0000 </r>
       <r>   -10.6750     0.0000   250.0000 </r>
       <r>   -10.5141     0.0000   250.0000 </r>
       <r>   -10.3532     0.0000   250.0000 </r>
       <r>   -10.1923     0.0000   250.0000 </r>
       <r>   -10.0314     0.0000   250.0000 </r>
       <r>    -9.8705     0.0000   250.0000 </r>
       <r>    -9.7095     0.0000   250.0000 </r>
       <r>    -9.5486     0.0000   250.0000 </r>
       <r>    -9.3877     0.0000   250.0000 </r>
       <r>    -9.2268     0.0000   250.0000 </r>
       <r>    -9.0659     0.0000   250.0000 </r>
       <r>    -8.9050     0.0000   250.0000 </r>
       <r>    -8.7441     0.0000   250.0000 </r>
       <r>    -8.5832     0.0000   250.0000 </r>
       <r>    -8.4223     0.0000   250.0000 </r>
       <r>    -8.2614     0.0000   250.0000 </r>
       <r>    -8.1005     0.0000   250.0000 </r>
       <r>    -7.9396     0.0000   250.0000 </r>
       <r>    -7.7787     0.0000   250.0000 </r>
       <r>    -7.6178     0.0000   250.0000 </r>
       <r>    -7.4569     0.0000   250.0000 </r>
       <r>    -7.2960     0.0000   250.0000 </r>
       <r>    -7.1351     0.0000   250.0000 </r>
       <r>    -6.9742     0.0000   250.0000 </r>
       <r>    -6.8133     1.4634   250.2355 </r>
       <r>    -6.6524     8.4757   251.5993 </r>
       <r>    -6.4915    19.7521   254.7775 </r>
       <r>    -6.3305    19.0652   257.8451 </r>
       <r>    -6.1696    33.8695   263.2949 </r>
       <r>    -6.0087    32.9377   268.5947 </r>
       <r>    -5.8478    63.7237   278.8482 </r>
       <r>    -5.6869    63.5449   289.0728 </r>
       <r>    -5.5260    91.3872   303.7775 </r>
       <r>    -5.3651    74.6284   315.7856 </r>
       <r>    -5.2042    38.9799   322.0576 </r>
       <r>    -5.0433    18.3172   325.0049 </r>
       <r>    -4.8824    21.1009   328.4002 </r>
       <r>    -4.7215    39.5456   334.7633 </r>
       <r>    -4.5606    68.3641   345.7634 </r>
       <r>    -4.3997    99.4666   361.7680 </r>
       <r>    -4.2388    74.5205   373.7587 </r>
       <r>    -4.0779    42.4599   380.5907 </r>
       <r>    -3.9170    26.6894   384.8852 </r>
       <r>    -3.7561    82.7206   398.1953 </r>
       <r>    -3.5952    99.4416   414.1960 </r>
       <r>    -3.4343    69.6005   425.3950 </r>
       <r>    -3.2734    57.5408   434.6536 </r>
       <r>    -3.1125    50.8405   442.8341 </r>
       <r>    -2.9515    39.9504   449.2623 </r>
       <r>    -2.7906    27.7679   453.7303 </r>
       <r>    -2.6297    80.3781   466.6635 </r>
       <r>    -2.4688    99.9608   482.7476 </r>
       <r>    -2.3079    70.9498   494.1638 </r>
       <r>    -2.1470    53.8538   502.8291 </r>
       <r>    -1.9861    70.0775   514.1050 </r>
       <r>    -1.8252    78.1537   526.6802 </r>
       <r>    -1.6643    64.0009   536.9783 </r>
       <r>    -1.5034    56.3275   546.0417 </r>
       <r>    -1.3425    30.7738   550.9933 </r>
       <r>    -1.1816    46.5775   558.4879 </r>
       <r>    -1.0207    80.6176   571.4596 </r>
       <r>    -0.8598    78.7139   584.1251 </r>
       <r>    -0.6989    59.9304   593.7682 </r>
       <r>    -0.5380    28.2387   598.3119 </r>
       <r>    -0.3771     9.1211   599.7795 </r>
       <r>    -0.2162     1.3672   599.9995 </r>
       <r>    -0.0553     0.0030   600.0000 </r>
       <r>     0.1056     0.0000   600.0000 </r>
       <r>     0.2666     0.0000   600.0000 </r>
       <r>     0.4275     0.0000   600.0000 </r>
       <r>     0.5884     0.0000   600.0000 </r>
       <r>     0.7493     0.0000   600.0000 </r>
       <r>     0.9102     0.0000   600.0000 </r>
       <r>     1.0711     0.3112   600.0501 </r>
       <r>     1.2320    16.5882   602.7192 </r>
       <r>     1.3929    41.9512   609.4693 </r>
       <r>     1.5538    66.0348   620.0947 </r>
       <r>     1.7147    63.7709   630.3557 </r>
       <r>     1.8756    69.1658   641.4848 </r>
       <r>     2.0365    78.0589   654.0449 </r>
       <r>     2.1974    78.0807   666.6084 </r>
       <r>     2.3583   104.3097   683.3924 </r>
       <r>     2.5192    94.9768   698.6746 </r>
       <r>     2.6801    71.8530   710.2361 </r>
       <r>     2.8410    83.5293   723.6763 </r>
       <r>     3.0019    73.0613   735.4322 </r>
       <r>     3.1628    43.4938   742.4306 </r>
       <r>     3.3237    42.9377   749.3395 </r>
       <r>     3.4846    41.3744   755.9968 </r>
       <r>     3.6456    78.0691   768.5585 </r>
       <r>     3.8065    35.4272   774.2589 </r>
       <r>     3.9674    32.9664   779.5634 </r>
       <r>     4.1283    38.1374   785.6999 </r>
       <r>     4.2892    51.1943   793.9373 </r>
       <r>     4.4501    20.3904   797.2182 </r>
       <r>     4.6110    27.3547   801.6197 </r>
       <r>     4.7719    14.4737   803.9486 </r>
       <r>     4.9328    27.4890   808.3717 </r>
       <r>     5.0937    17.8077   811.2370 </r>
       <r>     5.2546    25.4699   815.3353 </r>
       <r>     5.4155     4.1287   815.9996 </r>
       <r>     5.5764     0.0026   816.0000 </r>
       <r>     5.7373     0.0000   816.0000 </r>
       <r>     5.8982     0.0000   816.0000 </r>
       <r>     6.0591     0.0000   816.0000 </r>
       <r>     6.2200     0.0000   816.0000 </r>
       <r>     6.3809     0.0000   816.0000 </r>
       <r>     6.5418     0.0000   816.0000 </r>
       <r>     6.7027     0.0000   816.0000 </r>
       <r>     6.8636     0.0000   816.0000 </r>
       <r>     7.0246     0.0000   816.0000 </r>
       <r>     7.1855     0.0000   816.0000 </r>
       <r>     7.3464     0.0000   816.0000 </r>
       <r>     7.5073     0.0000   816.0000 </r>
      </set>
     </set>
    </array>
   </total>
  </dos>
 </calculation>
 <structure name="finalpos" >
  <crystal>
   <varray name="basis" >
    <v>      15.95157981       0.00000000       0.00000000 </v>
    <v>      -7.97578990      13.81447335       0.00000000 </v>
    <v>       0.00000000       0.00000000      28.24983972 </v>
   </varray>
   <i name="volume">   6225.21022374 </i>
   <varray name="rec_basis" >
    <v>       0.06268972       0.03619392       0.00000000 </v>
    <v>       0.00000000       0.07238785       0.00000000 </v>
    <v>       0.00000000       0.00000000       0.03539843 </v>
   </varray>
  </crystal>
  <varray name="positions" >
   <v>       0.13333340       0.06666660       0.05750754 </v>
   <v>       0.13333340       0.26666660       0.05750754 </v>
   <v>       0.13333340       0.46666660       0.05750754 </v>
   <v>       0.13333340       0.66666660       0.05750754 </v>
   <v>       0.13333340       0.86666660       0.05750754 </v>
   <v>       0.33333340       0.06666660       0.05750754 </v>
   <v>       0.33333340       0.26666660       0.05750754 </v>
   <v>       0.33333340       0.46666660       0.05750754 </v>
   <v>       0.33333340       0.66666660       0.05750754 </v>
   <v>       0.33333340       0.86666660       0.05750754 </v>
   <v>       0.53333340       0.06666660       0.05750754 </v>
   <v>       0.53333340       0.26666660       0.05750754 </v>
   <v>       0.53333340       0.46666660       0.05750754 </v>
   <v>       0.53333340       0.66666660       0.05750754 </v>
   <v>       0.53333340       0.86666660       0.05750754 </v>
   <v>       0.73333340       0.06666660       0.05750754 </v>
   <v>       0.73333340       0.26666660       0.05750754 </v>
   <v>       0.73333340       0.46666660       0.05750754 </v>
   <v>       0.73333340       0.66666660       0.05750754 </v>
   <v>       0.73333340       0.86666660       0.05750754 </v>
   <v>       0.93333340       0.06666660       0.05750754 </v>
   <v>       0.93333340       0.26666660       0.05750754 </v>
   <v>       0.93333340       0.46666660       0.05750754 </v>
   <v>       0.93333340       0.66666660       0.05750754 </v>
   <v>       0.93333340       0.86666660       0.05750754 </v>
   <v>       0.06666660       0.13333340       0.40814559 </v>
   <v>       0.06666660       0.33333340       0.40814559 </v>
   <v>       0.06666660       0.53333340       0.40814559 </v>
   <v>       0.06666660       0.73333340       0.40814559 </v>
   <v>       0.06666660       0.93333340       0.40814559 </v>
   <v>       0.26666660       0.13333340       0.40814559 </v>
   <v>       0.26666660       0.33333340       0.40814559 </v>
   <v>       0.26666660       0.53333340       0.40814559 </v>
   <v>       0.26666660       0.73333340       0.40814559 </v>
   <v>       0.26666660       0.93333340       0.40814559 </v>
   <v>       0.46666660       0.13333340       0.40814559 </v>
   <v>       0.46666660       0.33333340       0.40814559 </v>
   <v>       0.46666660       0.53333340       0.40814559 </v>
   <v>       0.46666660       0.73333340       0.40814559 </v>
   <v>       0.46666660       0.93333340       0.40814559 </v>
   <v>       0.66666660       0.13333340       0.40814559 </v>
   <v>       0.66666660       0.33333340       0.40814559 </v>
   <v>       0.66666660       0.53333340       0.40814559 </v>
   <v>       0.66666660       0.73333340       0.40814559 </v>
   <v>       0.66666660       0.93333340       0.40814559 </v>
   <v>       0.86666660       0.13333340       0.40814559 </v>
   <v>       0.86666660       0.33333340       0.40814559 </v>
   <v>       0.86666660       0.53333340       0.40814559 </v>
   <v>       0.86666660       0.73333340       0.40814559 </v>
   <v>       0.86666660       0.93333340       0.40814559 </v>
   <v>       0.06666660       0.13333340       0.11230316 </v>
   <v>       0.06666660       0.33333340       0.11230316 </v>
   <v>       0.06666660       0.53333340       0.11230316 </v>
   <v>       0.06666660       0.73333340       0.11230316 </v>
   <v>       0.06666660       0.93333340       0.11230316 </v>
   <v>       0.26666660       0.13333340       0.11230316 </v>
   <v>       0.26666660       0.33333340       0.11230316 </v>
   <v>       0.26666660       0.53333340       0.11230316 </v>
   <v>       0.26666660       0.73333340       0.11230316 </v>
   <v>       0.26666660       0.93333340       0.11230316 </v>
   <v>       0.46666660       0.13333340       0.11230316 </v>
   <v>       0.46666660       0.33333340       0.11230316 </v>
   <v>       0.46666660       0.53333340       0.11230316 </v>
   <v>       0.46666660       0.73333340       0.11230316 </v>
   <v>       0.46666660       0.93333340       0.11230316 </v>
   <v>       0.66666660       0.13333340       0.11230316 </v>
   <v>       0.66666660       0.33333340       0.11230316 </v>
   <v>       0.66666660       0.53333340       0.11230316 </v>
   <v>       0.66666660       0.73333340       0.11230316 </v>
   <v>       0.66666660       0.93333340       0.11230316 </v>
   <v>       0.86666660       0.13333340       0.11230316 </v>
   <v>       0.86666660       0.33333340       0.11230316 </v>
   <v>       0.86666660       0.53333340       0.11230316 </v>
   <v>       0.86666660       0.73333340       0.11230316 </v>
   <v>       0.86666660       0.93333340       0.11230316 </v>
   <v>       0.13333340       0.06666660       0.35299689 </v>
   <v>       0.13333340       0.26666660       0.35299689 </v>
   <v>       0.13333340       0.46666660       0.35299689 </v>
   <v>       0.13333340       0.66666660       0.35299689 </v>
   <v>       0.13333340       0.86666660       0.35299689 </v>
   <v>       0.33333340       0.06666660       0.35299689 </v>
   <v>       0.33333340       0.26666660       0.35299689 </v>
   <v>       0.33333340       0.46666660       0.35299689 </v>
   <v>       0.33333340       0.66666660       0.35299689 </v>
   <v>       0.33333340       0.86666660       0.35299689 </v>
   <v>       0.53333340       0.06666660       0.35299689 </v>
   <v>       0.53333340       0.26666660       0.35299689 </v>
   <v>       0.53333340       0.46666660       0.35299689 </v>
   <v>       0.53333340       0.66666660       0.35299689 </v>
   <v>       0.53333340       0.86666660       0.35299689 </v>
   <v>       0.73333340       0.06666660       0.35299689 </v>
   <v>       0.73333340       0.26666660       0.35299689 </v>
   <v>       0.73333340       0.46666660       0.35299689 </v>
   <v>       0.73333340       0.66666660       0.35299689 </v>
   <v>       0.73333340       0.86666660       0.35299689 </v>
   <v>       0.93333340       0.06666660       0.35299689 </v>
   <v>       0.93333340       0.26666660       0.35299689 </v>
   <v>       0.93333340       0.46666660       0.35299689 </v>
   <v>       0.93333340       0.66666660       0.35299689 </v>
   <v>       0.93333340       0.86666660       0.35299689 </v>
   <v>       0.06666660       0.13333340      -0.00357679 </v>
   <v>       0.06666660       0.33333340      -0.00357679 </v>
   <v>       0.06666660       0.53333340      -0.00357679 </v>
   <v>       0.06666660       0.73333340      -0.00357679 </v>
   <v>       0.06666660       0.93333340      -0.00357679 </v>
   <v>       0.26666660       0.13333340      -0.00357679 </v>
   <v>       0.26666660       0.33333340      -0.00357679 </v>
   <v>       0.26666660       0.53333340      -0.00357679 </v>
   <v>       0.26666660       0.73333340      -0.00357679 </v>
   <v>       0.26666660       0.93333340      -0.00357679 </v>
   <v>       0.46666660       0.13333340      -0.00357679 </v>
   <v>       0.46666660       0.33333340      -0.00357679 </v>
   <v>       0.46666660       0.53333340      -0.00357679 </v>
   <v>       0.46666660       0.73333340      -0.00357679 </v>
   <v>       0.46666660       0.93333340      -0.00357679 </v>
   <v>       0.66666660       0.13333340      -0.00357679 </v>
   <v>       0.66666660       0.33333340      -0.00357679 </v>
   <v>       0.66666660       0.53333340      -0.00357679 </v>
   <v>       0.66666660       0.73333340      -0.00357679 </v>
   <v>       0.66666660       0.93333340      -0.00357679 </v>
   <v>       0.86666660       0.13333340      -0.00357679 </v>
   <v>       0.86666660       0.33333340      -0.00357679 </v>
   <v>       0.86666660       0.53333340      -0.00357679 </v>
   <v>       0.86666660       0.73333340      -0.00357679 </v>
   <v>       0.86666660       0.93333340      -0.00357679 </v>
   <v>       0.13333340       0.06666660       0.46958961 </v>
   <v>       0.13333340       0.26666660       0.46958961 </v>
   <v>       0.13333340       0.46666660       0.46958961 </v>
   <v>       0.13333340       0.66666660       0.46958961 </v>
   <v>       0.13333340       0.86666660       0.46958961 </v>
   <v>       0.33333340       0.06666660       0.46958961 </v>
   <v>       0.33333340       0.26666660       0.46958961 </v>
   <v>       0.33333340       0.46666660       0.46958961 </v>
   <v>       0.33333340       0.66666660       0.46958961 </v>
   <v>       0.33333340       0.86666660       0.46958961 </v>
   <v>       0.53333340       0.06666660       0.46958961 </v>
   <v>       0.53333340       0.26666660       0.46958961 </v>
   <v>       0.53333340       0.46666660       0.46958961 </v>
   <v>       0.53333340       0.66666660       0.46958961 </v>
   <v>       0.53333340       0.86666660       0.46958961 </v>
   <v>       0.73333340       0.06666660       0.46958961 </v>
   <v>       0.73333340       0.26666660       0.46958961 </v>
   <v>       0.73333340       0.46666660       0.46958961 </v>
   <v>       0.73333340       0.66666660       0.46958961 </v>
   <v>       0.73333340       0.86666660       0.46958961 </v>
   <v>       0.93333340       0.06666660       0.46958961 </v>
   <v>       0.93333340       0.26666660       0.46958961 </v>
   <v>       0.93333340       0.46666660       0.46958961 </v>
   <v>       0.93333340       0.66666660       0.46958961 </v>
   <v>       0.93333340       0.86666660       0.46958961 </v>
  </varray>
 </structure>
</modeling>
