 running on    8 total cores
 distrk:  each k-point on    8 cores,    1 groups
 distr:  one band on    1 cores,    8 groups
 using from now: INCAR     
 vasp.5.4.1 05Feb16 (build Feb 01 2017 11:38:15) complex                        
  
 POSCAR found type information on POSCAR  Mo S 
 POSCAR found :  2 types and       3 ions
 scaLAPACK will be used

 ----------------------------------------------------------------------------- 
|                                                                             |
|           W    W    AA    RRRRR   N    N  II  N    N   GGGG   !!!           |
|           W    W   A  A   R    R  NN   N  II  NN   N  G    G  !!!           |
|           W    W  A    A  R    R  N N  N  II  N N  N  G       !!!           |
|           W WW W  AAAAAA  RRRRR   N  N N  II  N  N N  G  GGG   !            |
|           WW  WW  A    A  R   R   N   NN  II  N   NN  G    G                |
|           W    W  A    A  R    R  N    N  II  N    N   GGGG   !!!           |
|                                                                             |
|      For optimal performance we recommend to set                            |
|        NCORE= 4 - approx SQRT( number of cores)                             |
|      NCORE specifies how many cores store one orbital (NPAR=cpu/NCORE).     |
|      This setting can  greatly improve the performance of VASP for DFT.     |
|      The default, NPAR=number of cores might be grossly inefficient         |
|      on modern multi-core architectures or massively parallel machines.     |
|      Do your own testing !!!!                                               |
|      Unfortunately you need to use the default for GW and RPA calculations. |
|      (for HF NCORE is supported but not extensively tested yet)             |
|                                                                             |
 ----------------------------------------------------------------------------- 

 LDA part: xc-table for Pade appr. of Perdew
 POSCAR, INCAR and KPOINTS ok, starting setup
 FFT: planning ...
 WAVECAR not read
 entering main loop
       N       E                     dE             d eps       ncg     rms          ort
DAV:   1     0.211504607039E+03    0.21150E+03   -0.10578E+04  5760   0.102E+03
DAV:   2     0.370633919192E+01   -0.20780E+03   -0.19769E+03  5760   0.238E+02
DAV:   3    -0.205030102237E+02   -0.24209E+02   -0.23715E+02  5760   0.773E+01
DAV:   4    -0.213915466585E+02   -0.88854E+00   -0.88511E+00  5760   0.173E+01
DAV:   5    -0.214166266178E+02   -0.25080E-01   -0.25069E-01  5760   0.284E+00
 gam= 0.000 g(H,U,f)=  0.106E+02 0.126E+02 0.120E-13 ort(H,U,f) = 0.000E+00 0.000E+00 0.000E+00
SDA:   6    -0.175387608790E+02    0.38779E+01   -0.25069E-01  5760   0.232E+02 0.000E+00
 gam= 0.000 trial= 0.400  step= 0.291 mean= 0.400
 gam= 0.108 g(H,U,f)=  0.167E+01 0.840E+00 0.246E-16 ort(H,U,f) =-0.146E+01 0.114E+01-0.825E-16
CGA:   7    -0.210459196858E+02   -0.35072E+01   -0.33845E+01  5760   0.251E+01-0.327E+00
 gam= 0.108 trial= 0.395  step= 0.344 mean= 0.395
 gam= 0.349 g(H,U,f)=  0.718E+00 0.156E+00 0.278E-11 ort(H,U,f) =-0.432E-01 0.421E-01-0.513E-12
CGA:   8    -0.214715162096E+02   -0.42560E+00   -0.42527E+00  5760   0.875E+00-0.116E-02
 gam= 0.349 trial= 0.392  step= 0.403 mean= 0.392
 gam= 0.378 g(H,U,f)=  0.291E+00 0.396E-01 0.619E-18 ort(H,U,f) =-0.846E-01 0.875E-01 0.914E-18
CGA:   9    -0.216478030052E+02   -0.17629E+00   -0.17629E+00  5760   0.330E+00 0.287E-02
 gam= 0.378 trial= 0.393  step= 0.336 mean= 0.393
 gam= 0.386 g(H,U,f)=  0.100E+00 0.271E-01 0.531E-14 ort(H,U,f) =-0.188E-01 0.180E-01 0.304E-13
CGA:  10    -0.217036334630E+02   -0.55830E-01   -0.55748E-01  5760   0.128E+00-0.790E-03
 gam= 0.386 trial= 0.390  step= 0.438 mean= 0.390
 gam= 0.290 g(H,U,f)=  0.334E-01 0.357E-02 0.140E-22 ort(H,U,f) =-0.103E-01 0.102E-01 0.401E-22
CGA:  11    -0.217315101225E+02   -0.27877E-01   -0.27875E-01  5760   0.369E-01-0.214E-05
 gam= 0.290 trial= 0.392  step= 0.422 mean= 0.392
 gam= 0.439 g(H,U,f)=  0.136E-01 0.263E-02 0.603E-18 ort(H,U,f) =-0.368E-02 0.362E-02 0.142E-17
CGA:  12    -0.217392964990E+02   -0.77864E-02   -0.77870E-02  5760   0.162E-01-0.517E-04
 gam= 0.439 trial= 0.394  step= 0.500 mean= 0.394
 gam= 0.385 g(H,U,f)=  0.504E-02 0.120E-02 0.280E-13 ort(H,U,f) =-0.181E-02 0.173E-02 0.228E-12
CGA:  13    -0.217433407872E+02   -0.40443E-02   -0.40437E-02  5760   0.624E-02-0.750E-04
 gam= 0.385 trial= 0.399  step= 0.456 mean= 0.399
 gam= 0.406 g(H,U,f)=  0.197E-02 0.565E-03 0.163E-13 ort(H,U,f) =-0.338E-03 0.460E-03 0.121E-12
CGA:  14    -0.217447614879E+02   -0.14207E-02   -0.14165E-02  5760   0.253E-02 0.122E-03
 gam= 0.406 trial= 0.402  step= 0.477 mean= 0.402
 gam= 0.366 g(H,U,f)=  0.700E-03 0.226E-03 0.169E-13 ort(H,U,f) =-0.253E-03 0.298E-03-0.959E-13
CGA:  15    -0.217453796324E+02   -0.61814E-03   -0.61601E-03  5760   0.926E-03 0.455E-04
 gam= 0.366 trial= 0.406  step= 0.567 mean= 0.406
 gam= 0.492 g(H,U,f)=  0.350E-03 0.106E-03 0.427E-17 ort(H,U,f) =-0.151E-03 0.168E-03 0.607E-15
CGA:  16    -0.217456487594E+02   -0.26913E-03   -0.26735E-03  5760   0.455E-03 0.171E-04
 gam= 0.492 trial= 0.414  step= 0.623 mean= 0.414
 gam= 0.462 g(H,U,f)=  0.168E-03 0.426E-04 0.460E-13 ort(H,U,f) =-0.760E-04 0.823E-04-0.164E-12
CGA:  17    -0.217457940612E+02   -0.14530E-03   -0.14442E-03  5760   0.210E-03 0.633E-05
 gam= 0.462 trial= 0.424  step= 0.650 mean= 0.424
 gam= 0.442 g(H,U,f)=  0.783E-04 0.146E-04 0.521E-25 ort(H,U,f) =-0.267E-04 0.281E-04 0.832E-25
CGA:  18    -0.217458634950E+02   -0.69434E-04   -0.69222E-04  5760   0.929E-04 0.145E-05
 gam= 0.442 trial= 0.435  step= 0.584 mean= 0.435
 gam= 0.449 g(H,U,f)=  0.294E-04 0.123E-04 0.386E-24 ort(H,U,f) =-0.453E-05 0.448E-05 0.566E-24
CGA:  19    -0.217458907885E+02   -0.27294E-04   -0.27291E-04  5760   0.418E-04-0.466E-07
 gam= 0.449 trial= 0.443  step= 0.487 mean= 0.443
 gam= 0.455 g(H,U,f)=  0.130E-04 0.606E-05 0.766E-24 ort(H,U,f) = 0.608E-06-0.112E-05 0.490E-23
CGA:  20    -0.217459009428E+02   -0.10154E-04   -0.10166E-04  5760   0.190E-04-0.512E-06
 gam= 0.455 trial= 0.445  step= 0.528 mean= 0.445
 gam= 0.357 g(H,U,f)=  0.535E-05 0.144E-05 0.189E-22 ort(H,U,f) =-0.848E-06 0.306E-06 0.818E-22
CGA:  21    -0.217459058814E+02   -0.49386E-05   -0.49617E-05  5760   0.679E-05-0.542E-06
 gam= 0.357 trial= 0.449  step= 0.623 mean= 0.449
 gam= 0.408 g(H,U,f)=  0.212E-05 0.652E-06 0.195E-21 ort(H,U,f) =-0.228E-06 0.611E-07-0.575E-21
CGA:  22    -0.217459079220E+02   -0.20406E-05   -0.20560E-05  5760   0.277E-05-0.167E-06
 gam= 0.408 trial= 0.458  step= 0.537 mean= 0.458
 gam= 0.418 g(H,U,f)=  0.831E-06 0.328E-06 0.636E-22 ort(H,U,f) = 0.200E-06-0.757E-07 0.406E-21
CGA:  23    -0.217459086527E+02   -0.73068E-06   -0.72659E-06  5760   0.116E-05 0.124E-06
 gam= 0.418 trial= 0.462  step= 0.470 mean= 0.462
 gam= 0.349 g(H,U,f)=  0.305E-06 0.992E-07 0.456E-20 ort(H,U,f) = 0.133E-06-0.215E-07-0.802E-21
CGA:  24    -0.217459089370E+02   -0.28426E-06   -0.28452E-06  5760   0.404E-06 0.111E-06
 gam= 0.349 trial= 0.462  step= 0.520 mean= 0.462
 gam= 0.307 g(H,U,f)=  0.102E-06 0.216E-07 0.770E-20 ort(H,U,f) = 0.574E-07 0.460E-08 0.137E-19
CGA:  25    -0.217459090533E+02   -0.11632E-06   -0.11530E-06  5760   0.124E-06 0.620E-07
 gam= 0.307 trial= 0.465  step= 0.599 mean= 0.465
 gam= 0.356 g(H,U,f)=  0.348E-07 0.938E-08 0.446E-19 ort(H,U,f) = 0.171E-07 0.655E-08 0.684E-19
CGA:  26    -0.217459090969E+02   -0.43626E-07   -0.42865E-07  5760   0.442E-07 0.236E-07
 gam= 0.356 trial= 0.472  step= 0.651 mean= 0.472
   1 F= -.21745909E+02 E0= -.21745909E+02  d E =-.158118E-14  mag=     0.0000     0.0000     0.0000
 writing wavefunctions
