<?xml version="1.0" encoding="ISO-8859-1"?>
<modeling>
 <generator>
  <i name="program" type="string">vasp </i>
  <i name="version" type="string">5.4.1  </i>
  <i name="subversion" type="string">05Feb16 (build Feb 01 2017 11:31:40) complex                          parallel </i>
  <i name="platform" type="string">IFC91_ompi </i>
  <i name="date" type="string">2025 10 22 </i>
  <i name="time" type="string">14:57:15 </i>
 </generator>
 <incar>
  <i type="string" name="SYSTEM"> MoS2 band (SOC OFF)</i>
  <i type="int" name="ISTART">     1</i>
  <i type="string" name="PREC">accurate</i>
  <i type="string" name="ALGO"> Normal</i>
  <i type="logical" name="LSORBIT"> F  </i>
  <i type="logical" name="LNONCOLLINEAR"> F  </i>
  <i type="int" name="ISPIN">     2</i>
  <i type="int" name="ICHARG">    11</i>
  <i type="int" name="IBRION">    -1</i>
  <i name="EDIFF">      0.00000001</i>
  <i type="int" name="NSW">     0</i>
  <i type="int" name="ISIF">     2</i>
  <i name="ENCUT">    600.00000000</i>
  <i type="logical" name="LREAL"> F  </i>
  <i type="int" name="ISMEAR">     0</i>
  <i name="SIGMA">      0.05000000</i>
  <i type="logical" name="LWAVE"> F  </i>
  <i type="logical" name="LCHARG"> F  </i>
  <v type="int" name="KPOINT_BSE">    -1     0     0     0</v>
 </incar>
 <kpoints>
  <generation param="listgenerated">
   <i name="divisions" type="int">      80 </i>
   <v>       0.00000000       0.00000000       0.00000000 </v>
   <v>       0.33333300       0.33333300       0.00000000 </v>
   <v>       0.50000000       0.00000000       0.00000000 </v>
   <v>       0.00000000       0.00000000       0.00000000 </v>
  </generation>
  <varray name="kpointlist" >
   <v>       0.00000000       0.00000000       0.00000000 </v>
   <v>       0.00421941       0.00421941       0.00000000 </v>
   <v>       0.00843881       0.00843881       0.00000000 </v>
   <v>       0.01265822       0.01265822       0.00000000 </v>
   <v>       0.01687762       0.01687762       0.00000000 </v>
   <v>       0.02109703       0.02109703       0.00000000 </v>
   <v>       0.02531643       0.02531643       0.00000000 </v>
   <v>       0.02953584       0.02953584       0.00000000 </v>
   <v>       0.03375524       0.03375524       0.00000000 </v>
   <v>       0.03797465       0.03797465       0.00000000 </v>
   <v>       0.04219405       0.04219405       0.00000000 </v>
   <v>       0.04641346       0.04641346       0.00000000 </v>
   <v>       0.05063286       0.05063286       0.00000000 </v>
   <v>       0.05485227       0.05485227       0.00000000 </v>
   <v>       0.05907167       0.05907167       0.00000000 </v>
   <v>       0.06329108       0.06329108       0.00000000 </v>
   <v>       0.06751048       0.06751048       0.00000000 </v>
   <v>       0.07172989       0.07172989       0.00000000 </v>
   <v>       0.07594929       0.07594929       0.00000000 </v>
   <v>       0.08016870       0.08016870       0.00000000 </v>
   <v>       0.08438810       0.08438810       0.00000000 </v>
   <v>       0.08860751       0.08860751       0.00000000 </v>
   <v>       0.09282691       0.09282691       0.00000000 </v>
   <v>       0.09704632       0.09704632       0.00000000 </v>
   <v>       0.10126572       0.10126572       0.00000000 </v>
   <v>       0.10548513       0.10548513       0.00000000 </v>
   <v>       0.10970453       0.10970453       0.00000000 </v>
   <v>       0.11392394       0.11392394       0.00000000 </v>
   <v>       0.11814334       0.11814334       0.00000000 </v>
   <v>       0.12236275       0.12236275       0.00000000 </v>
   <v>       0.12658215       0.12658215       0.00000000 </v>
   <v>       0.13080156       0.13080156       0.00000000 </v>
   <v>       0.13502096       0.13502096       0.00000000 </v>
   <v>       0.13924037       0.13924037       0.00000000 </v>
   <v>       0.14345977       0.14345977       0.00000000 </v>
   <v>       0.14767918       0.14767918       0.00000000 </v>
   <v>       0.15189858       0.15189858       0.00000000 </v>
   <v>       0.15611799       0.15611799       0.00000000 </v>
   <v>       0.16033739       0.16033739       0.00000000 </v>
   <v>       0.16455680       0.16455680       0.00000000 </v>
   <v>       0.16877620       0.16877620       0.00000000 </v>
   <v>       0.17299561       0.17299561       0.00000000 </v>
   <v>       0.17721501       0.17721501       0.00000000 </v>
   <v>       0.18143442       0.18143442       0.00000000 </v>
   <v>       0.18565382       0.18565382       0.00000000 </v>
   <v>       0.18987323       0.18987323       0.00000000 </v>
   <v>       0.19409263       0.19409263       0.00000000 </v>
   <v>       0.19831204       0.19831204       0.00000000 </v>
   <v>       0.20253144       0.20253144       0.00000000 </v>
   <v>       0.20675085       0.20675085       0.00000000 </v>
   <v>       0.21097025       0.21097025       0.00000000 </v>
   <v>       0.21518966       0.21518966       0.00000000 </v>
   <v>       0.21940906       0.21940906       0.00000000 </v>
   <v>       0.22362847       0.22362847       0.00000000 </v>
   <v>       0.22784787       0.22784787       0.00000000 </v>
   <v>       0.23206728       0.23206728       0.00000000 </v>
   <v>       0.23628668       0.23628668       0.00000000 </v>
   <v>       0.24050609       0.24050609       0.00000000 </v>
   <v>       0.24472549       0.24472549       0.00000000 </v>
   <v>       0.24894490       0.24894490       0.00000000 </v>
   <v>       0.25316430       0.25316430       0.00000000 </v>
   <v>       0.25738371       0.25738371       0.00000000 </v>
   <v>       0.26160311       0.26160311       0.00000000 </v>
   <v>       0.26582252       0.26582252       0.00000000 </v>
   <v>       0.27004192       0.27004192       0.00000000 </v>
   <v>       0.27426133       0.27426133       0.00000000 </v>
   <v>       0.27848073       0.27848073       0.00000000 </v>
   <v>       0.28270014       0.28270014       0.00000000 </v>
   <v>       0.28691954       0.28691954       0.00000000 </v>
   <v>       0.29113895       0.29113895       0.00000000 </v>
   <v>       0.29535835       0.29535835       0.00000000 </v>
   <v>       0.29957776       0.29957776       0.00000000 </v>
   <v>       0.30379716       0.30379716       0.00000000 </v>
   <v>       0.30801657       0.30801657       0.00000000 </v>
   <v>       0.31223597       0.31223597       0.00000000 </v>
   <v>       0.31645538       0.31645538       0.00000000 </v>
   <v>       0.32067478       0.32067478       0.00000000 </v>
   <v>       0.32489419       0.32489419       0.00000000 </v>
   <v>       0.32911359       0.32911359       0.00000000 </v>
   <v>       0.33333300       0.33333300       0.00000000 </v>
   <v>       0.33333300       0.33333300       0.00000000 </v>
   <v>       0.33544271       0.32911359       0.00000000 </v>
   <v>       0.33755242       0.32489419       0.00000000 </v>
   <v>       0.33966213       0.32067478       0.00000000 </v>
   <v>       0.34177184       0.31645538       0.00000000 </v>
   <v>       0.34388154       0.31223597       0.00000000 </v>
   <v>       0.34599125       0.30801657       0.00000000 </v>
   <v>       0.34810096       0.30379716       0.00000000 </v>
   <v>       0.35021067       0.29957776       0.00000000 </v>
   <v>       0.35232038       0.29535835       0.00000000 </v>
   <v>       0.35443009       0.29113895       0.00000000 </v>
   <v>       0.35653980       0.28691954       0.00000000 </v>
   <v>       0.35864951       0.28270014       0.00000000 </v>
   <v>       0.36075922       0.27848073       0.00000000 </v>
   <v>       0.36286892       0.27426133       0.00000000 </v>
   <v>       0.36497863       0.27004192       0.00000000 </v>
   <v>       0.36708834       0.26582252       0.00000000 </v>
   <v>       0.36919805       0.26160311       0.00000000 </v>
   <v>       0.37130776       0.25738371       0.00000000 </v>
   <v>       0.37341747       0.25316430       0.00000000 </v>
   <v>       0.37552718       0.24894490       0.00000000 </v>
   <v>       0.37763689       0.24472549       0.00000000 </v>
   <v>       0.37974659       0.24050609       0.00000000 </v>
   <v>       0.38185630       0.23628668       0.00000000 </v>
   <v>       0.38396601       0.23206728       0.00000000 </v>
   <v>       0.38607572       0.22784787       0.00000000 </v>
   <v>       0.38818543       0.22362847       0.00000000 </v>
   <v>       0.39029514       0.21940906       0.00000000 </v>
   <v>       0.39240485       0.21518966       0.00000000 </v>
   <v>       0.39451456       0.21097025       0.00000000 </v>
   <v>       0.39662427       0.20675085       0.00000000 </v>
   <v>       0.39873397       0.20253144       0.00000000 </v>
   <v>       0.40084368       0.19831204       0.00000000 </v>
   <v>       0.40295339       0.19409263       0.00000000 </v>
   <v>       0.40506310       0.18987323       0.00000000 </v>
   <v>       0.40717281       0.18565382       0.00000000 </v>
   <v>       0.40928252       0.18143442       0.00000000 </v>
   <v>       0.41139223       0.17721501       0.00000000 </v>
   <v>       0.41350194       0.17299561       0.00000000 </v>
   <v>       0.41561165       0.16877620       0.00000000 </v>
   <v>       0.41772135       0.16455680       0.00000000 </v>
   <v>       0.41983106       0.16033739       0.00000000 </v>
   <v>       0.42194077       0.15611799       0.00000000 </v>
   <v>       0.42405048       0.15189858       0.00000000 </v>
   <v>       0.42616019       0.14767918       0.00000000 </v>
   <v>       0.42826990       0.14345977       0.00000000 </v>
   <v>       0.43037961       0.13924037       0.00000000 </v>
   <v>       0.43248932       0.13502096       0.00000000 </v>
   <v>       0.43459903       0.13080156       0.00000000 </v>
   <v>       0.43670873       0.12658215       0.00000000 </v>
   <v>       0.43881844       0.12236275       0.00000000 </v>
   <v>       0.44092815       0.11814334       0.00000000 </v>
   <v>       0.44303786       0.11392394       0.00000000 </v>
   <v>       0.44514757       0.10970453       0.00000000 </v>
   <v>       0.44725728       0.10548513       0.00000000 </v>
   <v>       0.44936699       0.10126572       0.00000000 </v>
   <v>       0.45147670       0.09704632       0.00000000 </v>
   <v>       0.45358641       0.09282691       0.00000000 </v>
   <v>       0.45569611       0.08860751       0.00000000 </v>
   <v>       0.45780582       0.08438810       0.00000000 </v>
   <v>       0.45991553       0.08016870       0.00000000 </v>
   <v>       0.46202524       0.07594929       0.00000000 </v>
   <v>       0.46413495       0.07172989       0.00000000 </v>
   <v>       0.46624466       0.06751048       0.00000000 </v>
   <v>       0.46835437       0.06329108       0.00000000 </v>
   <v>       0.47046408       0.05907167       0.00000000 </v>
   <v>       0.47257378       0.05485227       0.00000000 </v>
   <v>       0.47468349       0.05063286       0.00000000 </v>
   <v>       0.47679320       0.04641346       0.00000000 </v>
   <v>       0.47890291       0.04219405       0.00000000 </v>
   <v>       0.48101262       0.03797465       0.00000000 </v>
   <v>       0.48312233       0.03375524       0.00000000 </v>
   <v>       0.48523204       0.02953584       0.00000000 </v>
   <v>       0.48734175       0.02531643       0.00000000 </v>
   <v>       0.48945146       0.02109703       0.00000000 </v>
   <v>       0.49156116       0.01687762       0.00000000 </v>
   <v>       0.49367087       0.01265822       0.00000000 </v>
   <v>       0.49578058       0.00843881       0.00000000 </v>
   <v>       0.49789029       0.00421941       0.00000000 </v>
   <v>       0.50000000      -0.00000000       0.00000000 </v>
   <v>       0.50000000       0.00000000       0.00000000 </v>
   <v>       0.49367089       0.00000000       0.00000000 </v>
   <v>       0.48734177       0.00000000       0.00000000 </v>
   <v>       0.48101266       0.00000000       0.00000000 </v>
   <v>       0.47468354       0.00000000       0.00000000 </v>
   <v>       0.46835443       0.00000000       0.00000000 </v>
   <v>       0.46202532       0.00000000       0.00000000 </v>
   <v>       0.45569620       0.00000000       0.00000000 </v>
   <v>       0.44936709       0.00000000       0.00000000 </v>
   <v>       0.44303797       0.00000000       0.00000000 </v>
   <v>       0.43670886       0.00000000       0.00000000 </v>
   <v>       0.43037975       0.00000000       0.00000000 </v>
   <v>       0.42405063       0.00000000       0.00000000 </v>
   <v>       0.41772152       0.00000000       0.00000000 </v>
   <v>       0.41139241       0.00000000       0.00000000 </v>
   <v>       0.40506329       0.00000000       0.00000000 </v>
   <v>       0.39873418       0.00000000       0.00000000 </v>
   <v>       0.39240506       0.00000000       0.00000000 </v>
   <v>       0.38607595       0.00000000       0.00000000 </v>
   <v>       0.37974684       0.00000000       0.00000000 </v>
   <v>       0.37341772       0.00000000       0.00000000 </v>
   <v>       0.36708861       0.00000000       0.00000000 </v>
   <v>       0.36075949       0.00000000       0.00000000 </v>
   <v>       0.35443038       0.00000000       0.00000000 </v>
   <v>       0.34810127       0.00000000       0.00000000 </v>
   <v>       0.34177215       0.00000000       0.00000000 </v>
   <v>       0.33544304       0.00000000       0.00000000 </v>
   <v>       0.32911392       0.00000000       0.00000000 </v>
   <v>       0.32278481       0.00000000       0.00000000 </v>
   <v>       0.31645570       0.00000000       0.00000000 </v>
   <v>       0.31012658       0.00000000       0.00000000 </v>
   <v>       0.30379747       0.00000000       0.00000000 </v>
   <v>       0.29746835       0.00000000       0.00000000 </v>
   <v>       0.29113924       0.00000000       0.00000000 </v>
   <v>       0.28481013       0.00000000       0.00000000 </v>
   <v>       0.27848101       0.00000000       0.00000000 </v>
   <v>       0.27215190       0.00000000       0.00000000 </v>
   <v>       0.26582278       0.00000000       0.00000000 </v>
   <v>       0.25949367       0.00000000       0.00000000 </v>
   <v>       0.25316456       0.00000000       0.00000000 </v>
   <v>       0.24683544       0.00000000       0.00000000 </v>
   <v>       0.24050633       0.00000000       0.00000000 </v>
   <v>       0.23417722       0.00000000       0.00000000 </v>
   <v>       0.22784810       0.00000000       0.00000000 </v>
   <v>       0.22151899       0.00000000       0.00000000 </v>
   <v>       0.21518987       0.00000000       0.00000000 </v>
   <v>       0.20886076       0.00000000       0.00000000 </v>
   <v>       0.20253165       0.00000000       0.00000000 </v>
   <v>       0.19620253       0.00000000       0.00000000 </v>
   <v>       0.18987342       0.00000000       0.00000000 </v>
   <v>       0.18354430       0.00000000       0.00000000 </v>
   <v>       0.17721519       0.00000000       0.00000000 </v>
   <v>       0.17088608       0.00000000       0.00000000 </v>
   <v>       0.16455696       0.00000000       0.00000000 </v>
   <v>       0.15822785       0.00000000       0.00000000 </v>
   <v>       0.15189873       0.00000000       0.00000000 </v>
   <v>       0.14556962       0.00000000       0.00000000 </v>
   <v>       0.13924051       0.00000000       0.00000000 </v>
   <v>       0.13291139       0.00000000       0.00000000 </v>
   <v>       0.12658228       0.00000000       0.00000000 </v>
   <v>       0.12025316       0.00000000       0.00000000 </v>
   <v>       0.11392405       0.00000000       0.00000000 </v>
   <v>       0.10759494       0.00000000       0.00000000 </v>
   <v>       0.10126582       0.00000000       0.00000000 </v>
   <v>       0.09493671       0.00000000       0.00000000 </v>
   <v>       0.08860759       0.00000000       0.00000000 </v>
   <v>       0.08227848       0.00000000       0.00000000 </v>
   <v>       0.07594937       0.00000000       0.00000000 </v>
   <v>       0.06962025       0.00000000       0.00000000 </v>
   <v>       0.06329114       0.00000000       0.00000000 </v>
   <v>       0.05696203       0.00000000       0.00000000 </v>
   <v>       0.05063291       0.00000000       0.00000000 </v>
   <v>       0.04430380       0.00000000       0.00000000 </v>
   <v>       0.03797468       0.00000000       0.00000000 </v>
   <v>       0.03164557       0.00000000       0.00000000 </v>
   <v>       0.02531646       0.00000000       0.00000000 </v>
   <v>       0.01898734       0.00000000       0.00000000 </v>
   <v>       0.01265823       0.00000000       0.00000000 </v>
   <v>       0.00632911       0.00000000       0.00000000 </v>
   <v>       0.00000000       0.00000000       0.00000000 </v>
  </varray>
  <varray name="weights" >
   <v>       0.00416667 </v>
   <v>       0.00416667 </v>
   <v>       0.00416667 </v>
   <v>       0.00416667 </v>
   <v>       0.00416667 </v>
   <v>       0.00416667 </v>
   <v>       0.00416667 </v>
   <v>       0.00416667 </v>
   <v>       0.00416667 </v>
   <v>       0.00416667 </v>
   <v>       0.00416667 </v>
   <v>       0.00416667 </v>
   <v>       0.00416667 </v>
   <v>       0.00416667 </v>
   <v>       0.00416667 </v>
   <v>       0.00416667 </v>
   <v>       0.00416667 </v>
   <v>       0.00416667 </v>
   <v>       0.00416667 </v>
   <v>       0.00416667 </v>
   <v>       0.00416667 </v>
   <v>       0.00416667 </v>
   <v>       0.00416667 </v>
   <v>       0.00416667 </v>
   <v>       0.00416667 </v>
   <v>       0.00416667 </v>
   <v>       0.00416667 </v>
   <v>       0.00416667 </v>
   <v>       0.00416667 </v>
   <v>       0.00416667 </v>
   <v>       0.00416667 </v>
   <v>       0.00416667 </v>
   <v>       0.00416667 </v>
   <v>       0.00416667 </v>
   <v>       0.00416667 </v>
   <v>       0.00416667 </v>
   <v>       0.00416667 </v>
   <v>       0.00416667 </v>
   <v>       0.00416667 </v>
   <v>       0.00416667 </v>
   <v>       0.00416667 </v>
   <v>       0.00416667 </v>
   <v>       0.00416667 </v>
   <v>       0.00416667 </v>
   <v>       0.00416667 </v>
   <v>       0.00416667 </v>
   <v>       0.00416667 </v>
   <v>       0.00416667 </v>
   <v>       0.00416667 </v>
   <v>       0.00416667 </v>
   <v>       0.00416667 </v>
   <v>       0.00416667 </v>
   <v>       0.00416667 </v>
   <v>       0.00416667 </v>
   <v>       0.00416667 </v>
   <v>       0.00416667 </v>
   <v>       0.00416667 </v>
   <v>       0.00416667 </v>
   <v>       0.00416667 </v>
   <v>       0.00416667 </v>
   <v>       0.00416667 </v>
   <v>       0.00416667 </v>
   <v>       0.00416667 </v>
   <v>       0.00416667 </v>
   <v>       0.00416667 </v>
   <v>       0.00416667 </v>
   <v>       0.00416667 </v>
   <v>       0.00416667 </v>
   <v>       0.00416667 </v>
   <v>       0.00416667 </v>
   <v>       0.00416667 </v>
   <v>       0.00416667 </v>
   <v>       0.00416667 </v>
   <v>       0.00416667 </v>
   <v>       0.00416667 </v>
   <v>       0.00416667 </v>
   <v>       0.00416667 </v>
   <v>       0.00416667 </v>
   <v>       0.00416667 </v>
   <v>       0.00416667 </v>
   <v>       0.00416667 </v>
   <v>       0.00416667 </v>
   <v>       0.00416667 </v>
   <v>       0.00416667 </v>
   <v>       0.00416667 </v>
   <v>       0.00416667 </v>
   <v>       0.00416667 </v>
   <v>       0.00416667 </v>
   <v>       0.00416667 </v>
   <v>       0.00416667 </v>
   <v>       0.00416667 </v>
   <v>       0.00416667 </v>
   <v>       0.00416667 </v>
   <v>       0.00416667 </v>
   <v>       0.00416667 </v>
   <v>       0.00416667 </v>
   <v>       0.00416667 </v>
   <v>       0.00416667 </v>
   <v>       0.00416667 </v>
   <v>       0.00416667 </v>
   <v>       0.00416667 </v>
   <v>       0.00416667 </v>
   <v>       0.00416667 </v>
   <v>       0.00416667 </v>
   <v>       0.00416667 </v>
   <v>       0.00416667 </v>
   <v>       0.00416667 </v>
   <v>       0.00416667 </v>
   <v>       0.00416667 </v>
   <v>       0.00416667 </v>
   <v>       0.00416667 </v>
   <v>       0.00416667 </v>
   <v>       0.00416667 </v>
   <v>       0.00416667 </v>
   <v>       0.00416667 </v>
   <v>       0.00416667 </v>
   <v>       0.00416667 </v>
   <v>       0.00416667 </v>
   <v>       0.00416667 </v>
   <v>       0.00416667 </v>
   <v>       0.00416667 </v>
   <v>       0.00416667 </v>
   <v>       0.00416667 </v>
   <v>       0.00416667 </v>
   <v>       0.00416667 </v>
   <v>       0.00416667 </v>
   <v>       0.00416667 </v>
   <v>       0.00416667 </v>
   <v>       0.00416667 </v>
   <v>       0.00416667 </v>
   <v>       0.00416667 </v>
   <v>       0.00416667 </v>
   <v>       0.00416667 </v>
   <v>       0.00416667 </v>
   <v>       0.00416667 </v>
   <v>       0.00416667 </v>
   <v>       0.00416667 </v>
   <v>       0.00416667 </v>
   <v>       0.00416667 </v>
   <v>       0.00416667 </v>
   <v>       0.00416667 </v>
   <v>       0.00416667 </v>
   <v>       0.00416667 </v>
   <v>       0.00416667 </v>
   <v>       0.00416667 </v>
   <v>       0.00416667 </v>
   <v>       0.00416667 </v>
   <v>       0.00416667 </v>
   <v>       0.00416667 </v>
   <v>       0.00416667 </v>
   <v>       0.00416667 </v>
   <v>       0.00416667 </v>
   <v>       0.00416667 </v>
   <v>       0.00416667 </v>
   <v>       0.00416667 </v>
   <v>       0.00416667 </v>
   <v>       0.00416667 </v>
   <v>       0.00416667 </v>
   <v>       0.00416667 </v>
   <v>       0.00416667 </v>
   <v>       0.00416667 </v>
   <v>       0.00416667 </v>
   <v>       0.00416667 </v>
   <v>       0.00416667 </v>
   <v>       0.00416667 </v>
   <v>       0.00416667 </v>
   <v>       0.00416667 </v>
   <v>       0.00416667 </v>
   <v>       0.00416667 </v>
   <v>       0.00416667 </v>
   <v>       0.00416667 </v>
   <v>       0.00416667 </v>
   <v>       0.00416667 </v>
   <v>       0.00416667 </v>
   <v>       0.00416667 </v>
   <v>       0.00416667 </v>
   <v>       0.00416667 </v>
   <v>       0.00416667 </v>
   <v>       0.00416667 </v>
   <v>       0.00416667 </v>
   <v>       0.00416667 </v>
   <v>       0.00416667 </v>
   <v>       0.00416667 </v>
   <v>       0.00416667 </v>
   <v>       0.00416667 </v>
   <v>       0.00416667 </v>
   <v>       0.00416667 </v>
   <v>       0.00416667 </v>
   <v>       0.00416667 </v>
   <v>       0.00416667 </v>
   <v>       0.00416667 </v>
   <v>       0.00416667 </v>
   <v>       0.00416667 </v>
   <v>       0.00416667 </v>
   <v>       0.00416667 </v>
   <v>       0.00416667 </v>
   <v>       0.00416667 </v>
   <v>       0.00416667 </v>
   <v>       0.00416667 </v>
   <v>       0.00416667 </v>
   <v>       0.00416667 </v>
   <v>       0.00416667 </v>
   <v>       0.00416667 </v>
   <v>       0.00416667 </v>
   <v>       0.00416667 </v>
   <v>       0.00416667 </v>
   <v>       0.00416667 </v>
   <v>       0.00416667 </v>
   <v>       0.00416667 </v>
   <v>       0.00416667 </v>
   <v>       0.00416667 </v>
   <v>       0.00416667 </v>
   <v>       0.00416667 </v>
   <v>       0.00416667 </v>
   <v>       0.00416667 </v>
   <v>       0.00416667 </v>
   <v>       0.00416667 </v>
   <v>       0.00416667 </v>
   <v>       0.00416667 </v>
   <v>       0.00416667 </v>
   <v>       0.00416667 </v>
   <v>       0.00416667 </v>
   <v>       0.00416667 </v>
   <v>       0.00416667 </v>
   <v>       0.00416667 </v>
   <v>       0.00416667 </v>
   <v>       0.00416667 </v>
   <v>       0.00416667 </v>
   <v>       0.00416667 </v>
   <v>       0.00416667 </v>
   <v>       0.00416667 </v>
   <v>       0.00416667 </v>
   <v>       0.00416667 </v>
   <v>       0.00416667 </v>
   <v>       0.00416667 </v>
   <v>       0.00416667 </v>
   <v>       0.00416667 </v>
   <v>       0.00416667 </v>
   <v>       0.00416667 </v>
   <v>       0.00416667 </v>
  </varray>
 </kpoints>
 <parameters>
  <separator name="general" >
   <i type="string" name="SYSTEM">MoS2 band (SOC OFF)</i>
   <i type="logical" name="LCOMPAT"> F  </i>
  </separator>
  <separator name="electronic" >
   <i type="string" name="PREC">accura</i>
   <i name="ENMAX">    600.00000000</i>
   <i name="ENAUG">    392.42700000</i>
   <i name="EDIFF">      0.00000001</i>
   <i type="int" name="IALGO">    38</i>
   <i type="int" name="IWAVPR">    10</i>
   <i type="int" name="NBANDS">    24</i>
   <i name="NELECT">     24.00000000</i>
   <i type="int" name="TURBO">     0</i>
   <i type="int" name="IRESTART">     0</i>
   <i type="int" name="NREBOOT">     0</i>
   <i type="int" name="NMIN">     0</i>
   <i name="EREF">      0.00000000</i>
   <separator name="electronic smearing" >
    <i type="int" name="ISMEAR">     0</i>
    <i name="SIGMA">      0.05000000</i>
    <i name="KSPACING">      0.50000000</i>
    <i type="logical" name="KGAMMA"> T  </i>
   </separator>
   <separator name="electronic projectors" >
    <i type="logical" name="LREAL"> F  </i>
    <v name="ROPT">      0.00000000      0.00000000</v>
    <i type="int" name="LMAXPAW">  -100</i>
    <i type="int" name="LMAXMIX">     2</i>
    <i type="logical" name="NLSPLINE"> F  </i>
   </separator>
   <separator name="electronic startup" >
    <i type="int" name="ISTART">     1</i>
    <i type="int" name="ICHARG">    11</i>
    <i type="int" name="INIWAV">     1</i>
   </separator>
   <separator name="electronic spin" >
    <i type="int" name="ISPIN">     2</i>
    <i type="logical" name="LNONCOLLINEAR"> F  </i>
    <v name="MAGMOM">      1.00000000      1.00000000      1.00000000</v>
    <i name="NUPDOWN">     -1.00000000</i>
    <i type="logical" name="LSORBIT"> F  </i>
    <v name="SAXIS">      0.00000000      0.00000000      1.00000000</v>
    <i type="logical" name="LSPIRAL"> F  </i>
    <v name="QSPIRAL">      0.00000000      0.00000000      0.00000000</v>
    <i type="logical" name="LZEROZ"> F  </i>
   </separator>
   <separator name="electronic exchange-correlation" >
    <i type="logical" name="LASPH"> F  </i>
    <i type="logical" name="LMETAGGA"> F  </i>
   </separator>
   <separator name="electronic convergence" >
    <i type="int" name="NELM">    60</i>
    <i type="int" name="NELMDL">     0</i>
    <i type="int" name="NELMIN">     2</i>
    <i name="ENINI">    600.00000000</i>
    <separator name="electronic convergence detail" >
     <i type="logical" name="LDIAG"> T  </i>
     <i type="logical" name="LSUBROT"> F  </i>
     <i name="WEIMIN">      0.00000000</i>
     <i name="EBREAK">      0.00000000</i>
     <i name="DEPER">      0.30000000</i>
     <i type="int" name="NRMM">     4</i>
     <i name="TIME">      0.40000000</i>
    </separator>
   </separator>
   <separator name="electronic mixer" >
    <i name="AMIX">      0.40000000</i>
    <i name="BMIX">      1.00000000</i>
    <i name="AMIN">      0.10000000</i>
    <i name="AMIX_MAG">      1.60000000</i>
    <i name="BMIX_MAG">      1.00000000</i>
    <separator name="electronic mixer details" >
     <i type="int" name="IMIX">     4</i>
     <i type="logical" name="MIXFIRST"> F  </i>
     <i type="int" name="MAXMIX">   -45</i>
     <i name="WC">    100.00000000</i>
     <i type="int" name="INIMIX">     1</i>
     <i type="int" name="MIXPRE">     1</i>
     <i type="int" name="MREMOVE">     5</i>
    </separator>
   </separator>
   <separator name="electronic dipolcorrection" >
    <i type="logical" name="LDIPOL"> F  </i>
    <i type="logical" name="LMONO"> F  </i>
    <i type="int" name="IDIPOL">     0</i>
    <i name="EPSILON">      1.00000000</i>
    <v name="DIPOL">   -100.00000000   -100.00000000   -100.00000000</v>
    <i name="EFIELD">      0.00000000</i>
   </separator>
  </separator>
  <separator name="grids" >
   <i type="int" name="NGX">    28</i>
   <i type="int" name="NGY">    28</i>
   <i type="int" name="NGZ">   280</i>
   <i type="int" name="NGXF">    56</i>
   <i type="int" name="NGYF">    56</i>
   <i type="int" name="NGZF">   560</i>
   <i type="logical" name="ADDGRID"> F  </i>
  </separator>
  <separator name="ionic" >
   <i type="int" name="NSW">     0</i>
   <i type="int" name="IBRION">    -1</i>
   <i type="int" name="ISIF">     2</i>
   <i name="PSTRESS">      0.00000000</i>
   <i name="EDIFFG">      0.00000010</i>
   <i type="int" name="NFREE">     0</i>
   <i name="POTIM">      0.50000000</i>
   <i name="SMASS">     -3.00000000</i>
   <i name="SCALEE">      1.00000000</i>
  </separator>
  <separator name="ionic md" >
   <i name="TEBEG">      0.00010000</i>
   <i name="TEEND">      0.00010000</i>
   <i type="int" name="NBLOCK">     1</i>
   <i type="int" name="KBLOCK">     1</i>
   <i type="int" name="NPACO">   256</i>
   <i name="APACO">     16.00000000</i>
  </separator>
  <separator name="symmetry" >
   <i type="int" name="ISYM">     2</i>
   <i name="SYMPREC">      0.00001000</i>
  </separator>
  <separator name="dos" >
   <i type="logical" name="LORBIT"> F  </i>
   <v name="RWIGS">     -1.00000000     -1.00000000</v>
   <i type="int" name="NEDOS">   301</i>
   <i name="EMIN">     10.00000000</i>
   <i name="EMAX">    -10.00000000</i>
   <i name="EFERMI">      0.00000000</i>
  </separator>
  <separator name="writing" >
   <i type="int" name="NWRITE">     2</i>
   <i type="logical" name="LWAVE"> F  </i>
   <i type="logical" name="LCHARG"> F  </i>
   <i type="logical" name="LPARD"> F  </i>
   <i type="logical" name="LVTOT"> F  </i>
   <i type="logical" name="LVHAR"> F  </i>
   <i type="logical" name="LELF"> F  </i>
   <i type="logical" name="LOPTICS"> F  </i>
   <v name="STM">      0.00000000      0.00000000      0.00000000      0.00000000      0.00000000      0.00000000      0.00000000</v>
  </separator>
  <separator name="performance" >
   <i type="int" name="NPAR">     8</i>
   <i type="int" name="NSIM">     4</i>
   <i type="int" name="NBLK">    -1</i>
   <i type="logical" name="LPLANE"> T  </i>
   <i type="logical" name="LSCALAPACK"> T  </i>
   <i type="logical" name="LSCAAWARE"> F  </i>
   <i type="logical" name="LSCALU"> F  </i>
   <i type="logical" name="LASYNC"> F  </i>
   <i type="logical" name="LORBITALREAL"> F  </i>
  </separator>
  <separator name="miscellaneous" >
   <i type="int" name="IDIOT">     3</i>
   <i type="logical" name="LMUSIC"> F  </i>
   <v name="POMASS">     95.94000000     32.06600000</v>
   <v name="DARWINR">      0.00000000      0.00000000</v>
   <v name="DARWINV">      1.00000000      1.00000000</v>
   <i type="logical" name="LCORR"> T  </i>
  </separator>
  <i type="logical" name="GGA_COMPAT"> T  </i>
  <i type="logical" name="LBERRY"> F  </i>
  <i type="int" name="ICORELEVEL">     0</i>
  <i type="logical" name="LDAU"> F  </i>
  <i type="int" name="I_CONSTRAINED_M">     0</i>
  <separator name="electronic exchange-correlation" >
   <i type="string" name="GGA">--</i>
   <i type="int" name="VOSKOWN">     0</i>
   <i type="logical" name="LHFCALC"> F  </i>
   <i type="string" name="PRECFOCK"></i>
   <i type="logical" name="LSYMGRAD"> F  </i>
   <i type="logical" name="LHFONE"> F  </i>
   <i type="logical" name="LRHFCALC"> F  </i>
   <i type="logical" name="LTHOMAS"> F  </i>
   <i type="logical" name="LMODELHF"> F  </i>
   <i name="ENCUT4O">     -1.00000000</i>
   <i type="int" name="EXXOEP">     0</i>
   <i type="int" name="FOURORBIT">     0</i>
   <i name="AEXX">      0.00000000</i>
   <i name="HFALPHA">      0.00000000</i>
   <i name="MCALPHA">      0.00000000</i>
   <i name="ALDAX">      1.00000000</i>
   <i name="AGGAX">      1.00000000</i>
   <i name="ALDAC">      1.00000000</i>
   <i name="AGGAC">      1.00000000</i>
   <i type="int" name="NKREDX">     1</i>
   <i type="int" name="NKREDY">     1</i>
   <i type="int" name="NKREDZ">     1</i>
   <i type="logical" name="SHIFTRED"> F  </i>
   <i type="logical" name="ODDONLY"> F  </i>
   <i type="logical" name="EVENONLY"> F  </i>
   <i type="int" name="LMAXFOCK">     0</i>
   <i type="int" name="NMAXFOCKAE">     0</i>
   <i type="logical" name="LFOCKAEDFT"> F  </i>
   <i name="HFSCREEN">      0.00000000</i>
   <i name="HFSCREENC">      0.00000000</i>
   <i type="int" name="NBANDSGWLOW">     0</i>
  </separator>
  <separator name="vdW DFT" >
   <i type="logical" name="LUSE_VDW"> F  </i>
   <i name="Zab_VDW">     -0.84910000</i>
   <i name="PARAM1">      0.12340000</i>
   <i name="PARAM2">      1.00000000</i>
   <i name="PARAM3">      0.00000000</i>
  </separator>
  <separator name="model GW" >
   <i type="int" name="MODEL_GW">     0</i>
   <i name="MODEL_EPS0">     63.11239540</i>
   <i name="MODEL_ALPHA">      1.00000000</i>
  </separator>
  <separator name="linear response parameters" >
   <i type="logical" name="LEPSILON"> F  </i>
   <i type="logical" name="LRPA"> F  </i>
   <i type="logical" name="LNABLA"> F  </i>
   <i type="logical" name="LVEL"> F  </i>
   <i type="int" name="KINTER">     0</i>
   <i name="CSHIFT">      0.10000000</i>
   <i name="OMEGAMAX">     -1.00000000</i>
   <i name="DEG_THRESHOLD">      0.00200000</i>
  </separator>
  <separator name="orbital magnetization" >
   <i type="logical" name="NUCIND"> F  </i>
   <v name="MAGPOS">      0.00000000      0.00000000      0.00000000</v>
   <i type="logical" name="LNICSALL"> T  </i>
   <i type="logical" name="ORBITALMAG"> F  </i>
   <i type="logical" name="LMAGBLOCH"> F  </i>
   <i type="logical" name="LCHIMAG"> F  </i>
   <i type="logical" name="LGAUGE"> T  </i>
   <i type="int" name="MAGATOM">     0</i>
   <v name="MAGDIPOL">      0.00000000      0.00000000      0.00000000</v>
   <v name="AVECCONST">      0.00000000      0.00000000      0.00000000</v>
  </separator>
  <separator name="response functions" >
   <i type="logical" name="LADDER"> F  </i>
   <i type="logical" name="LFXC"> F  </i>
   <i type="logical" name="LHARTREE"> T  </i>
   <i type="int" name="IBSE">     0</i>
   <v type="int" name="KPOINT">    -1     0     0     0</v>
   <i type="logical" name="LTCTE"> F  </i>
   <i type="logical" name="LTETE"> F  </i>
   <i type="logical" name="LTRIPLET"> F  </i>
   <i type="logical" name="LFXCEPS"> F  </i>
   <i type="logical" name="LFXHEG"> F  </i>
   <i type="int" name="NATURALO">     0</i>
   <i type="logical" name="L2ORDER"> F  </i>
   <i type="logical" name="LUSEW"> F  </i>
   <i name="ENCUTGW">     -2.00000000</i>
   <i name="ENCUTGWSOFT">     -2.00000000</i>
   <i name="ENCUTLF">     -1.00000000</i>
   <i type="int" name="LMAXMP2">    -1</i>
   <i name="SCISSOR">      0.00000000</i>
   <i type="int" name="NOMEGA">     0</i>
   <i type="int" name="NOMEGAR">     0</i>
   <i type="int" name="NBANDSGW">    -1</i>
   <i type="int" name="NBANDSO">    -1</i>
   <i type="int" name="NBANDSV">    -1</i>
   <i type="int" name="NELM">     1</i>
   <i type="int" name="NELMHF">     1</i>
   <i type="int" name="DIM">     3</i>
   <i type="int" name="ANTIRES">     0</i>
   <i name="OMEGAMAX">    -30.00000000</i>
   <i name="OMEGAMIN">    -30.00000000</i>
   <i name="OMEGATL">   -200.00000000</i>
   <i type="int" name="OMEGAGRID">     0</i>
   <i name="CSHIFT">     -0.10000000</i>
   <i type="logical" name="SELFENERGY"> F  </i>
   <i type="logical" name="LSPECTRAL"> F  </i>
   <i type="logical" name="LSPECTRALGW"> F  </i>
   <i type="logical" name="LSINGLES"> F  </i>
   <i type="logical" name="LFERMIGW"> F  </i>
   <i type="logical" name="ODDONLYGW"> F  </i>
   <i type="logical" name="EVENONLYGW"> F  </i>
   <i type="int" name="NKREDLFX">     1</i>
   <i type="int" name="NKREDLFY">     1</i>
   <i type="int" name="NKREDLFZ">     1</i>
   <i type="int" name="MAXMEM">  1800</i>
   <i type="int" name="TELESCOPE">     0</i>
   <i type="int" name="TAUPAR">     1</i>
   <i type="int" name="OMEGAPAR">    -1</i>
   <i name="LAMBDA">      1.00000000</i>
  </separator>
  <separator name="External order field" >
   <i name="OFIELD_KAPPA">      0.00000000</i>
   <v name="OFIELD_K">      0.00000000      0.00000000      0.00000000</v>
   <i name="OFIELD_Q6_NEAR">      0.00000000</i>
   <i name="OFIELD_Q6_FAR">      0.00000000</i>
   <i name="OFIELD_A">      0.00000000</i>
  </separator>
  <separator name="solvation model" >
   <i type="logical" name="LSOL"> F  </i>
  </separator>
 </parameters>
 <atominfo>
  <atoms>       3 </atoms>
  <types>       2 </types>
  <array name="atoms" >
   <dimension dim="1">ion</dimension>
   <field type="string">element</field>
   <field type="int">atomtype</field>
   <set>
    <rc><c>Mo</c><c>   1</c></rc>
    <rc><c>S </c><c>   2</c></rc>
    <rc><c>S </c><c>   2</c></rc>
   </set>
  </array>
  <array name="atomtypes" >
   <dimension dim="1">type</dimension>
   <field type="int">atomspertype</field>
   <field type="string">element</field>
   <field>mass</field>
   <field>valence</field>
   <field type="string">pseudopotential</field>
   <set>
    <rc><c>   1</c><c>Mo</c><c>     95.94000000</c><c>     12.00000000</c><c> PAW_PBE Mo_pv 08Apr2002                </c></rc>
    <rc><c>   2</c><c>S </c><c>     32.06600000</c><c>      6.00000000</c><c>  PAW_PBE S 17Jan2003                   </c></rc>
   </set>
  </array>
 </atominfo>
 <structure name="initialpos" >
  <crystal>
   <varray name="basis" >
    <v>       1.61415312      -2.79579451       0.00000000 </v>
    <v>       1.61415312       2.79579451       0.00000000 </v>
    <v>       0.00000000       0.00000000      34.96267827 </v>
   </varray>
   <i name="volume">    315.56197699 </i>
   <varray name="rec_basis" >
    <v>       0.30975996      -0.17884004       0.00000000 </v>
    <v>       0.30975996       0.17884004       0.00000000 </v>
    <v>       0.00000000       0.00000000       0.02860193 </v>
   </varray>
  </crystal>
  <varray name="positions" >
   <v>       0.66666700       0.33333300       0.10664700 </v>
   <v>       0.33333300       0.66666700       0.06198962 </v>
   <v>       0.33333300       0.66666700       0.15130538 </v>
  </varray>
 </structure>
 <calculation>
  <scstep>
   <time name="dav">   76.64   76.72</time>
   <time name="total">   77.06   77.16</time>
   <energy>
    <i name="alphaZ">     16.83056415 </i>
    <i name="ewald">  11561.09611740 </i>
    <i name="hartreedc"> -13128.02961613 </i>
    <i name="XCdc">     61.71850031 </i>
    <i name="pawpsdc">   1158.59693092 </i>
    <i name="pawaedc">  -1137.34941777 </i>
    <i name="eentropy">     -0.00000000 </i>
    <i name="bandstr">   -388.21664867 </i>
    <i name="atom">   1837.94417650 </i>
    <i name="e_fr_energy">    -17.40939329 </i>
    <i name="e_wo_entrp">    -17.40939329 </i>
    <i name="e_0_energy">    -17.40939329 </i>
   </energy>
  </scstep>
  <scstep>
   <time name="dav">   72.23   72.26</time>
   <time name="total">   72.23   72.27</time>
   <energy>
    <i name="e_fr_energy">    -21.28486635 </i>
    <i name="e_wo_entrp">    -21.28486635 </i>
    <i name="e_0_energy">    -21.28486635 </i>
   </energy>
  </scstep>
  <scstep>
   <time name="dav">   75.28   75.31</time>
   <time name="total">   75.28   75.32</time>
   <energy>
    <i name="e_fr_energy">    -21.35306024 </i>
    <i name="e_wo_entrp">    -21.35306024 </i>
    <i name="e_0_energy">    -21.35306024 </i>
   </energy>
  </scstep>
  <scstep>
   <time name="dav">   75.11   75.14</time>
   <time name="total">   75.11   75.15</time>
   <energy>
    <i name="e_fr_energy">    -21.35467499 </i>
    <i name="e_wo_entrp">    -21.35467499 </i>
    <i name="e_0_energy">    -21.35467499 </i>
   </energy>
  </scstep>
  <scstep>
   <time name="dav">   76.87   76.91</time>
   <time name="total">   76.88   77.00</time>
   <energy>
    <i name="e_fr_energy">    -21.35472795 </i>
    <i name="e_wo_entrp">    -21.35472795 </i>
    <i name="e_0_energy">    -21.35472795 </i>
   </energy>
  </scstep>
  <scstep>
   <time name="dav">   76.37   76.41</time>
   <time name="total">   76.37   76.41</time>
   <energy>
    <i name="e_fr_energy">    -21.35472847 </i>
    <i name="e_wo_entrp">    -21.35472847 </i>
    <i name="e_0_energy">    -21.35472847 </i>
   </energy>
  </scstep>
  <scstep>
   <time name="dav">   71.93   71.97</time>
   <time name="total">   71.94   71.98</time>
   <energy>
    <i name="e_fr_energy">    -21.35472848 </i>
    <i name="e_wo_entrp">    -21.35472848 </i>
    <i name="e_0_energy">    -21.35472848 </i>
   </energy>
  </scstep>
  <scstep>
   <time name="dav">   61.19   61.22</time>
   <time name="total">   61.19   61.23</time>
   <energy>
    <i name="alphaZ">     16.83056415 </i>
    <i name="ewald">  11561.09611740 </i>
    <i name="hartreedc"> -13128.02961613 </i>
    <i name="XCdc">     61.71850031 </i>
    <i name="pawpsdc">   1158.59693092 </i>
    <i name="pawaedc">  -1137.34941777 </i>
    <i name="eentropy">     -0.00000000 </i>
    <i name="bandstr">   -392.16198386 </i>
    <i name="atom">   1837.94417650 </i>
    <i name="e_fr_energy">    -21.35472848 </i>
    <i name="e_wo_entrp">    -21.35472848 </i>
    <i name="e_0_energy">    -21.35472848 </i>
   </energy>
  </scstep>
  <structure>
   <crystal>
    <varray name="basis" >
     <v>       1.61415312      -2.79579451       0.00000000 </v>
     <v>       1.61415312       2.79579451       0.00000000 </v>
     <v>       0.00000000       0.00000000      34.96267827 </v>
    </varray>
    <i name="volume">    315.56197699 </i>
    <varray name="rec_basis" >
     <v>       0.30975996      -0.17884004       0.00000000 </v>
     <v>       0.30975996       0.17884004       0.00000000 </v>
     <v>       0.00000000       0.00000000       0.02860193 </v>
    </varray>
   </crystal>
   <varray name="positions" >
    <v>       0.66666700       0.33333300       0.10664700 </v>
    <v>       0.33333300       0.66666700       0.06198962 </v>
    <v>       0.33333300       0.66666700       0.15130538 </v>
   </varray>
  </structure>
  <varray name="forces" >
   <v>      -0.00000000       0.00000000       0.00000000 </v>
   <v>       0.00000000      -0.00000000       0.07112658 </v>
   <v>       0.00000000      -0.00000000      -0.07112658 </v>
  </varray>
  <varray name="stress" >
   <v>      -2.47481755       0.00000000       0.00000000 </v>
   <v>       0.00000000      -2.47481628       0.00000000 </v>
   <v>       0.00000000      -0.00000000       6.28883185 </v>
  </varray>
  <energy>
   <i name="e_fr_energy">    -21.35472848 </i>
   <i name="e_wo_entrp">    -21.35472848 </i>
   <i name="e_0_energy">     -0.00000000 </i>
  </energy>
  <time name="totalsc">  620.60  621.08</time>
  <eigenvalues>
   <array>
    <dimension dim="1">band</dimension>
    <dimension dim="2">kpoint</dimension>
    <dimension dim="3">spin</dimension>
    <field>eigene</field>
    <field>occ</field>
    <set>
     <set comment="spin 1">
      <set comment="kpoint 1">
       <r>  -38.9482    1.0000 </r>
       <r>  -38.7952    1.0000 </r>
       <r>  -38.7952    1.0000 </r>
       <r>  -17.8173    1.0000 </r>
       <r>  -16.5346    1.0000 </r>
       <r>   -9.3451    1.0000 </r>
       <r>   -6.4995    1.0000 </r>
       <r>   -6.4995    1.0000 </r>
       <r>   -5.5353    1.0000 </r>
       <r>   -5.4177    1.0000 </r>
       <r>   -5.4177    1.0000 </r>
       <r>   -3.8048    1.0000 </r>
       <r>   -1.2217    0.0000 </r>
       <r>   -1.2217    0.0000 </r>
       <r>   -0.9884    0.0000 </r>
       <r>   -0.9883    0.0000 </r>
       <r>    1.4777    0.0000 </r>
       <r>    1.6953    0.0000 </r>
       <r>    1.9821    0.0000 </r>
       <r>    2.2376    0.0000 </r>
       <r>    2.2886    0.0000 </r>
       <r>    2.6231    0.0000 </r>
       <r>    2.9847    0.0000 </r>
       <r>    3.4614    0.0000 </r>
      </set>
      <set comment="kpoint 2">
       <r>  -38.9481    1.0000 </r>
       <r>  -38.7953    1.0000 </r>
       <r>  -38.7952    1.0000 </r>
       <r>  -17.8166    1.0000 </r>
       <r>  -16.5343    1.0000 </r>
       <r>   -9.3442    1.0000 </r>
       <r>   -6.5013    1.0000 </r>
       <r>   -6.4987    1.0000 </r>
       <r>   -5.5525    1.0000 </r>
       <r>   -5.4189    1.0000 </r>
       <r>   -5.4016    1.0000 </r>
       <r>   -3.8052    1.0000 </r>
       <r>   -1.2230    0.0000 </r>
       <r>   -1.2203    0.0000 </r>
       <r>   -0.9907    0.0000 </r>
       <r>   -0.9892    0.0000 </r>
       <r>    1.4796    0.0000 </r>
       <r>    1.6963    0.0000 </r>
       <r>    1.9833    0.0000 </r>
       <r>    2.2386    0.0000 </r>
       <r>    2.2912    0.0000 </r>
       <r>    2.6247    0.0000 </r>
       <r>    2.9858    0.0000 </r>
       <r>    3.4625    0.0000 </r>
      </set>
      <set comment="kpoint 3">
       <r>  -38.9480    1.0000 </r>
       <r>  -38.7958    1.0000 </r>
       <r>  -38.7953    1.0000 </r>
       <r>  -17.8143    1.0000 </r>
       <r>  -16.5333    1.0000 </r>
       <r>   -9.3415    1.0000 </r>
       <r>   -6.5066    1.0000 </r>
       <r>   -6.4963    1.0000 </r>
       <r>   -5.5898    1.0000 </r>
       <r>   -5.4228    1.0000 </r>
       <r>   -5.3675    1.0000 </r>
       <r>   -3.8064    1.0000 </r>
       <r>   -1.2269    0.0000 </r>
       <r>   -1.2161    0.0000 </r>
       <r>   -0.9975    0.0000 </r>
       <r>   -0.9919    0.0000 </r>
       <r>    1.4850    0.0000 </r>
       <r>    1.6994    0.0000 </r>
       <r>    1.9867    0.0000 </r>
       <r>    2.2417    0.0000 </r>
       <r>    2.2989    0.0000 </r>
       <r>    2.6293    0.0000 </r>
       <r>    2.9888    0.0000 </r>
       <r>    3.4657    0.0000 </r>
      </set>
      <set comment="kpoint 4">
       <r>  -38.9479    1.0000 </r>
       <r>  -38.7967    1.0000 </r>
       <r>  -38.7955    1.0000 </r>
       <r>  -17.8106    1.0000 </r>
       <r>  -16.5318    1.0000 </r>
       <r>   -9.3371    1.0000 </r>
       <r>   -6.5155    1.0000 </r>
       <r>   -6.4924    1.0000 </r>
       <r>   -5.6343    1.0000 </r>
       <r>   -5.4291    1.0000 </r>
       <r>   -5.3283    1.0000 </r>
       <r>   -3.8085    1.0000 </r>
       <r>   -1.2334    0.0000 </r>
       <r>   -1.2092    0.0000 </r>
       <r>   -1.0088    0.0000 </r>
       <r>   -0.9963    0.0000 </r>
       <r>    1.4940    0.0000 </r>
       <r>    1.7045    0.0000 </r>
       <r>    1.9924    0.0000 </r>
       <r>    2.2468    0.0000 </r>
       <r>    2.3117    0.0000 </r>
       <r>    2.6372    0.0000 </r>
       <r>    2.9939    0.0000 </r>
       <r>    3.4712    0.0000 </r>
      </set>
      <set comment="kpoint 5">
       <r>  -38.9476    1.0000 </r>
       <r>  -38.7979    1.0000 </r>
       <r>  -38.7958    1.0000 </r>
       <r>  -17.8053    1.0000 </r>
       <r>  -16.5296    1.0000 </r>
       <r>   -9.3310    1.0000 </r>
       <r>   -6.5278    1.0000 </r>
       <r>   -6.4869    1.0000 </r>
       <r>   -5.6818    1.0000 </r>
       <r>   -5.4381    1.0000 </r>
       <r>   -5.2881    1.0000 </r>
       <r>   -3.8115    1.0000 </r>
       <r>   -1.2422    0.0000 </r>
       <r>   -1.1994    0.0000 </r>
       <r>   -1.0243    0.0000 </r>
       <r>   -1.0025    0.0000 </r>
       <r>    1.5064    0.0000 </r>
       <r>    1.7117    0.0000 </r>
       <r>    2.0003    0.0000 </r>
       <r>    2.2540    0.0000 </r>
       <r>    2.3294    0.0000 </r>
       <r>    2.6484    0.0000 </r>
       <r>    3.0010    0.0000 </r>
       <r>    3.4788    0.0000 </r>
      </set>
      <set comment="kpoint 6">
       <r>  -38.9473    1.0000 </r>
       <r>  -38.7994    1.0000 </r>
       <r>  -38.7961    1.0000 </r>
       <r>  -17.7986    1.0000 </r>
       <r>  -16.5269    1.0000 </r>
       <r>   -9.3231    1.0000 </r>
       <r>   -6.5435    1.0000 </r>
       <r>   -6.4798    1.0000 </r>
       <r>   -5.7310    1.0000 </r>
       <r>   -5.4496    1.0000 </r>
       <r>   -5.2484    1.0000 </r>
       <r>   -3.8154    1.0000 </r>
       <r>   -1.2532    0.0000 </r>
       <r>   -1.1870    0.0000 </r>
       <r>   -1.0437    0.0000 </r>
       <r>   -1.0104    0.0000 </r>
       <r>    1.5218    0.0000 </r>
       <r>    1.7210    0.0000 </r>
       <r>    2.0104    0.0000 </r>
       <r>    2.2632    0.0000 </r>
       <r>    2.3517    0.0000 </r>
       <r>    2.6632    0.0000 </r>
       <r>    3.0102    0.0000 </r>
       <r>    3.4885    0.0000 </r>
      </set>
      <set comment="kpoint 7">
       <r>  -38.9470    1.0000 </r>
       <r>  -38.8013    1.0000 </r>
       <r>  -38.7966    1.0000 </r>
       <r>  -17.7903    1.0000 </r>
       <r>  -16.5235    1.0000 </r>
       <r>   -9.3136    1.0000 </r>
       <r>   -6.5625    1.0000 </r>
       <r>   -6.4712    1.0000 </r>
       <r>   -5.7812    1.0000 </r>
       <r>   -5.4638    1.0000 </r>
       <r>   -5.2096    1.0000 </r>
       <r>   -3.8203    1.0000 </r>
       <r>   -1.2662    0.0000 </r>
       <r>   -1.1718    0.0000 </r>
       <r>   -1.0666    0.0000 </r>
       <r>   -1.0199    0.0000 </r>
       <r>    1.5401    0.0000 </r>
       <r>    1.7322    0.0000 </r>
       <r>    2.0226    0.0000 </r>
       <r>    2.2745    0.0000 </r>
       <r>    2.3784    0.0000 </r>
       <r>    2.6819    0.0000 </r>
       <r>    3.0213    0.0000 </r>
       <r>    3.5005    0.0000 </r>
      </set>
      <set comment="kpoint 8">
       <r>  -38.9466    1.0000 </r>
       <r>  -38.8035    1.0000 </r>
       <r>  -38.7971    1.0000 </r>
       <r>  -17.7807    1.0000 </r>
       <r>  -16.5195    1.0000 </r>
       <r>   -9.3023    1.0000 </r>
       <r>   -6.5847    1.0000 </r>
       <r>   -6.4610    1.0000 </r>
       <r>   -5.8322    1.0000 </r>
       <r>   -5.4805    1.0000 </r>
       <r>   -5.1722    1.0000 </r>
       <r>   -3.8261    1.0000 </r>
       <r>   -1.2809    0.0000 </r>
       <r>   -1.1541    0.0000 </r>
       <r>   -1.0928    0.0000 </r>
       <r>   -1.0312    0.0000 </r>
       <r>    1.5609    0.0000 </r>
       <r>    1.7455    0.0000 </r>
       <r>    2.0369    0.0000 </r>
       <r>    2.2878    0.0000 </r>
       <r>    2.4089    0.0000 </r>
       <r>    2.7049    0.0000 </r>
       <r>    3.0345    0.0000 </r>
       <r>    3.5147    0.0000 </r>
      </set>
      <set comment="kpoint 9">
       <r>  -38.9461    1.0000 </r>
       <r>  -38.8060    1.0000 </r>
       <r>  -38.7977    1.0000 </r>
       <r>  -17.7695    1.0000 </r>
       <r>  -16.5150    1.0000 </r>
       <r>   -9.2894    1.0000 </r>
       <r>   -6.6099    1.0000 </r>
       <r>   -6.4494    1.0000 </r>
       <r>   -5.8836    1.0000 </r>
       <r>   -5.5000    1.0000 </r>
       <r>   -5.1362    1.0000 </r>
       <r>   -3.8331    1.0000 </r>
       <r>   -1.2970    0.0000 </r>
       <r>   -1.1337    0.0000 </r>
       <r>   -1.1218    0.0000 </r>
       <r>   -1.0441    0.0000 </r>
       <r>    1.5840    0.0000 </r>
       <r>    1.7608    0.0000 </r>
       <r>    2.0533    0.0000 </r>
       <r>    2.3031    0.0000 </r>
       <r>    2.4426    0.0000 </r>
       <r>    2.7328    0.0000 </r>
       <r>    3.0497    0.0000 </r>
       <r>    3.5311    0.0000 </r>
      </set>
      <set comment="kpoint 10">
       <r>  -38.9455    1.0000 </r>
       <r>  -38.8088    1.0000 </r>
       <r>  -38.7983    1.0000 </r>
       <r>  -17.7569    1.0000 </r>
       <r>  -16.5098    1.0000 </r>
       <r>   -9.2750    1.0000 </r>
       <r>   -6.6380    1.0000 </r>
       <r>   -6.4363    1.0000 </r>
       <r>   -5.9354    1.0000 </r>
       <r>   -5.5221    1.0000 </r>
       <r>   -5.1018    1.0000 </r>
       <r>   -3.8413    1.0000 </r>
       <r>   -1.3141    0.0000 </r>
       <r>   -1.1531    0.0000 </r>
       <r>   -1.1109    0.0000 </r>
       <r>   -1.0585    0.0000 </r>
       <r>    1.6092    0.0000 </r>
       <r>    1.7781    0.0000 </r>
       <r>    2.0718    0.0000 </r>
       <r>    2.3205    0.0000 </r>
       <r>    2.4787    0.0000 </r>
       <r>    2.7661    0.0000 </r>
       <r>    3.0670    0.0000 </r>
       <r>    3.5497    0.0000 </r>
      </set>
      <set comment="kpoint 11">
       <r>  -38.9449    1.0000 </r>
       <r>  -38.8119    1.0000 </r>
       <r>  -38.7991    1.0000 </r>
       <r>  -17.7429    1.0000 </r>
       <r>  -16.5041    1.0000 </r>
       <r>   -9.2589    1.0000 </r>
       <r>   -6.6688    1.0000 </r>
       <r>   -6.4217    1.0000 </r>
       <r>   -5.9873    1.0000 </r>
       <r>   -5.5469    1.0000 </r>
       <r>   -5.0692    1.0000 </r>
       <r>   -3.8507    1.0000 </r>
       <r>   -1.3321    0.0000 </r>
       <r>   -1.1863    0.0000 </r>
       <r>   -1.0856    0.0000 </r>
       <r>   -1.0744    0.0000 </r>
       <r>    1.6362    0.0000 </r>
       <r>    1.7974    0.0000 </r>
       <r>    2.0922    0.0000 </r>
       <r>    2.3399    0.0000 </r>
       <r>    2.5163    0.0000 </r>
       <r>    2.8055    0.0000 </r>
       <r>    3.0862    0.0000 </r>
       <r>    3.5706    0.0000 </r>
      </set>
      <set comment="kpoint 12">
       <r>  -38.9443    1.0000 </r>
       <r>  -38.8153    1.0000 </r>
       <r>  -38.7999    1.0000 </r>
       <r>  -17.7274    1.0000 </r>
       <r>  -16.4977    1.0000 </r>
       <r>   -9.2414    1.0000 </r>
       <r>   -6.7021    1.0000 </r>
       <r>   -6.4058    1.0000 </r>
       <r>   -6.0393    1.0000 </r>
       <r>   -5.5744    1.0000 </r>
       <r>   -5.0383    1.0000 </r>
       <r>   -3.8614    1.0000 </r>
       <r>   -1.3504    0.0000 </r>
       <r>   -1.2211    0.0000 </r>
       <r>   -1.0918    0.0000 </r>
       <r>   -1.0580    0.0000 </r>
       <r>    1.6649    0.0000 </r>
       <r>    1.8187    0.0000 </r>
       <r>    2.1147    0.0000 </r>
       <r>    2.3614    0.0000 </r>
       <r>    2.5548    0.0000 </r>
       <r>    2.8513    0.0000 </r>
       <r>    3.1074    0.0000 </r>
       <r>    3.5938    0.0000 </r>
      </set>
      <set comment="kpoint 13">
       <r>  -38.9435    1.0000 </r>
       <r>  -38.8190    1.0000 </r>
       <r>  -38.8008    1.0000 </r>
       <r>  -17.7106    1.0000 </r>
       <r>  -16.4909    1.0000 </r>
       <r>   -9.2224    1.0000 </r>
       <r>   -6.7378    1.0000 </r>
       <r>   -6.3884    1.0000 </r>
       <r>   -6.0913    1.0000 </r>
       <r>   -5.6046    1.0000 </r>
       <r>   -5.0092    1.0000 </r>
       <r>   -3.8736    1.0000 </r>
       <r>   -1.3689    0.0000 </r>
       <r>   -1.2569    0.0000 </r>
       <r>   -1.1105    0.0000 </r>
       <r>   -1.0281    0.0000 </r>
       <r>    1.6951    0.0000 </r>
       <r>    1.8419    0.0000 </r>
       <r>    2.1391    0.0000 </r>
       <r>    2.3848    0.0000 </r>
       <r>    2.5936    0.0000 </r>
       <r>    2.9039    0.0000 </r>
       <r>    3.1306    0.0000 </r>
       <r>    3.6194    0.0000 </r>
      </set>
      <set comment="kpoint 14">
       <r>  -38.9428    1.0000 </r>
       <r>  -38.8230    1.0000 </r>
       <r>  -38.8018    1.0000 </r>
       <r>  -17.6924    1.0000 </r>
       <r>  -16.4834    1.0000 </r>
       <r>   -9.2020    1.0000 </r>
       <r>   -6.7756    1.0000 </r>
       <r>   -6.3698    1.0000 </r>
       <r>   -6.1430    1.0000 </r>
       <r>   -5.6376    1.0000 </r>
       <r>   -4.9820    1.0000 </r>
       <r>   -3.8872    1.0000 </r>
       <r>   -1.3872    0.0000 </r>
       <r>   -1.2934    0.0000 </r>
       <r>   -1.1305    0.0000 </r>
       <r>   -0.9961    0.0000 </r>
       <r>    1.7268    0.0000 </r>
       <r>    1.8671    0.0000 </r>
       <r>    2.1655    0.0000 </r>
       <r>    2.4103    0.0000 </r>
       <r>    2.6323    0.0000 </r>
       <r>    2.9631    0.0000 </r>
       <r>    3.1559    0.0000 </r>
       <r>    3.6475    0.0000 </r>
      </set>
      <set comment="kpoint 15">
       <r>  -38.9419    1.0000 </r>
       <r>  -38.8272    1.0000 </r>
       <r>  -38.8028    1.0000 </r>
       <r>  -17.6728    1.0000 </r>
       <r>  -16.4754    1.0000 </r>
       <r>   -9.1803    1.0000 </r>
       <r>   -6.8154    1.0000 </r>
       <r>   -6.3499    1.0000 </r>
       <r>   -6.1945    1.0000 </r>
       <r>   -5.6733    1.0000 </r>
       <r>   -4.9568    1.0000 </r>
       <r>   -3.9025    1.0000 </r>
       <r>   -1.4050    0.0000 </r>
       <r>   -1.3302    0.0000 </r>
       <r>   -1.1516    0.0000 </r>
       <r>   -0.9621    0.0000 </r>
       <r>    1.7598    0.0000 </r>
       <r>    1.8943    0.0000 </r>
       <r>    2.1939    0.0000 </r>
       <r>    2.4379    0.0000 </r>
       <r>    2.6710    0.0000 </r>
       <r>    3.0285    0.0000 </r>
       <r>    3.1831    0.0000 </r>
       <r>    3.6780    0.0000 </r>
      </set>
      <set comment="kpoint 16">
       <r>  -38.9411    1.0000 </r>
       <r>  -38.8317    1.0000 </r>
       <r>  -38.8040    1.0000 </r>
       <r>  -17.6520    1.0000 </r>
       <r>  -16.4668    1.0000 </r>
       <r>   -9.1574    1.0000 </r>
       <r>   -6.8568    1.0000 </r>
       <r>   -6.3287    1.0000 </r>
       <r>   -6.2457    1.0000 </r>
       <r>   -5.7116    1.0000 </r>
       <r>   -4.9334    1.0000 </r>
       <r>   -3.9194    1.0000 </r>
       <r>   -1.4219    0.0000 </r>
       <r>   -1.3671    0.0000 </r>
       <r>   -1.1737    0.0000 </r>
       <r>   -0.9262    0.0000 </r>
       <r>    1.7942    0.0000 </r>
       <r>    1.9233    0.0000 </r>
       <r>    2.2243    0.0000 </r>
       <r>    2.4674    0.0000 </r>
       <r>    2.7097    0.0000 </r>
       <r>    3.0994    0.0000 </r>
       <r>    3.2122    0.0000 </r>
       <r>    3.7113    0.0000 </r>
      </set>
      <set comment="kpoint 17">
       <r>  -38.9401    1.0000 </r>
       <r>  -38.8365    1.0000 </r>
       <r>  -38.8052    1.0000 </r>
       <r>  -17.6298    1.0000 </r>
       <r>  -16.4577    1.0000 </r>
       <r>   -9.1334    1.0000 </r>
       <r>   -6.8998    1.0000 </r>
       <r>   -6.3065    1.0000 </r>
       <r>   -6.2964    1.0000 </r>
       <r>   -5.7526    1.0000 </r>
       <r>   -4.9120    1.0000 </r>
       <r>   -3.9381    1.0000 </r>
       <r>   -1.4379    0.0000 </r>
       <r>   -1.4036    0.0000 </r>
       <r>   -1.1967    0.0000 </r>
       <r>   -0.8885    0.0000 </r>
       <r>    1.8300    0.0000 </r>
       <r>    1.9543    0.0000 </r>
       <r>    2.2566    0.0000 </r>
       <r>    2.4990    0.0000 </r>
       <r>    2.7488    0.0000 </r>
       <r>    3.1751    0.0000 </r>
       <r>    3.2434    0.0000 </r>
       <r>    3.7475    0.0000 </r>
      </set>
      <set comment="kpoint 18">
       <r>  -38.9391    1.0000 </r>
       <r>  -38.8414    1.0000 </r>
       <r>  -38.8065    1.0000 </r>
       <r>  -17.6063    1.0000 </r>
       <r>  -16.4481    1.0000 </r>
       <r>   -9.1082    1.0000 </r>
       <r>   -6.9440    1.0000 </r>
       <r>   -6.3466    1.0000 </r>
       <r>   -6.2832    1.0000 </r>
       <r>   -5.7962    1.0000 </r>
       <r>   -4.8925    1.0000 </r>
       <r>   -3.9586    1.0000 </r>
       <r>   -1.4526    0.0000 </r>
       <r>   -1.4396    0.0000 </r>
       <r>   -1.2204    0.0000 </r>
       <r>   -0.8491    0.0000 </r>
       <r>    1.8670    0.0000 </r>
       <r>    1.9872    0.0000 </r>
       <r>    2.2909    0.0000 </r>
       <r>    2.5325    0.0000 </r>
       <r>    2.7885    0.0000 </r>
       <r>    3.2545    0.0000 </r>
       <r>    3.2765    0.0000 </r>
       <r>    3.7867    0.0000 </r>
      </set>
      <set comment="kpoint 19">
       <r>  -38.9381    1.0000 </r>
       <r>  -38.8466    1.0000 </r>
       <r>  -38.8079    1.0000 </r>
       <r>  -17.5817    1.0000 </r>
       <r>  -16.4380    1.0000 </r>
       <r>   -9.0822    1.0000 </r>
       <r>   -6.9892    1.0000 </r>
       <r>   -6.3962    1.0000 </r>
       <r>   -6.2589    1.0000 </r>
       <r>   -5.8422    1.0000 </r>
       <r>   -4.8749    1.0000 </r>
       <r>   -3.9808    1.0000 </r>
       <r>   -1.4749    0.0000 </r>
       <r>   -1.4658    0.0000 </r>
       <r>   -1.2446    0.0000 </r>
       <r>   -0.8083    0.0000 </r>
       <r>    1.9054    0.0000 </r>
       <r>    2.0220    0.0000 </r>
       <r>    2.3272    0.0000 </r>
       <r>    2.5681    0.0000 </r>
       <r>    2.8291    0.0000 </r>
       <r>    3.3116    0.0000 </r>
       <r>    3.3368    0.0000 </r>
       <r>    3.8295    0.0000 </r>
      </set>
      <set comment="kpoint 20">
       <r>  -38.9370    1.0000 </r>
       <r>  -38.8520    1.0000 </r>
       <r>  -38.8093    1.0000 </r>
       <r>  -17.5558    1.0000 </r>
       <r>  -16.4274    1.0000 </r>
       <r>   -9.0553    1.0000 </r>
       <r>   -7.0353    1.0000 </r>
       <r>   -6.4453    1.0000 </r>
       <r>   -6.2337    1.0000 </r>
       <r>   -5.8907    1.0000 </r>
       <r>   -4.8592    1.0000 </r>
       <r>   -4.0050    1.0000 </r>
       <r>   -1.5091    0.0000 </r>
       <r>   -1.4774    0.0000 </r>
       <r>   -1.2692    0.0000 </r>
       <r>   -0.7661    0.0000 </r>
       <r>    1.9451    0.0000 </r>
       <r>    2.0586    0.0000 </r>
       <r>    2.3655    0.0000 </r>
       <r>    2.6057    0.0000 </r>
       <r>    2.8707    0.0000 </r>
       <r>    3.3486    0.0000 </r>
       <r>    3.4209    0.0000 </r>
       <r>    3.8761    0.0000 </r>
      </set>
      <set comment="kpoint 21">
       <r>  -38.9359    1.0000 </r>
       <r>  -38.8575    1.0000 </r>
       <r>  -38.8109    1.0000 </r>
       <r>  -17.5287    1.0000 </r>
       <r>  -16.4163    1.0000 </r>
       <r>   -9.0278    1.0000 </r>
       <r>   -7.0818    1.0000 </r>
       <r>   -6.4936    1.0000 </r>
       <r>   -6.2078    1.0000 </r>
       <r>   -5.9415    1.0000 </r>
       <r>   -4.8454    1.0000 </r>
       <r>   -4.0310    1.0000 </r>
       <r>   -1.5424    0.0000 </r>
       <r>   -1.4872    0.0000 </r>
       <r>   -1.2938    0.0000 </r>
       <r>   -0.7227    0.0000 </r>
       <r>    1.9861    0.0000 </r>
       <r>    2.0972    0.0000 </r>
       <r>    2.4058    0.0000 </r>
       <r>    2.6453    0.0000 </r>
       <r>    2.9136    0.0000 </r>
       <r>    3.3876    0.0000 </r>
       <r>    3.5057    0.0000 </r>
       <r>    3.9271    0.0000 </r>
      </set>
      <set comment="kpoint 22">
       <r>  -38.9348    1.0000 </r>
       <r>  -38.8633    1.0000 </r>
       <r>  -38.8125    1.0000 </r>
       <r>  -17.5005    1.0000 </r>
       <r>  -16.4047    1.0000 </r>
       <r>   -8.9997    1.0000 </r>
       <r>   -7.1287    1.0000 </r>
       <r>   -6.5413    1.0000 </r>
       <r>   -6.1812    1.0000 </r>
       <r>   -5.9944    1.0000 </r>
       <r>   -4.8335    1.0000 </r>
       <r>   -4.0587    1.0000 </r>
       <r>   -1.5745    0.0000 </r>
       <r>   -1.4951    0.0000 </r>
       <r>   -1.3182    0.0000 </r>
       <r>   -0.6783    0.0000 </r>
       <r>    2.0285    0.0000 </r>
       <r>    2.1375    0.0000 </r>
       <r>    2.4480    0.0000 </r>
       <r>    2.6869    0.0000 </r>
       <r>    2.9578    0.0000 </r>
       <r>    3.4285    0.0000 </r>
       <r>    3.5900    0.0000 </r>
       <r>    3.9832    0.0000 </r>
      </set>
      <set comment="kpoint 23">
       <r>  -38.9336    1.0000 </r>
       <r>  -38.8691    1.0000 </r>
       <r>  -38.8142    1.0000 </r>
       <r>  -17.4711    1.0000 </r>
       <r>  -16.3927    1.0000 </r>
       <r>   -8.9712    1.0000 </r>
       <r>   -7.1756    1.0000 </r>
       <r>   -6.5882    1.0000 </r>
       <r>   -6.1541    1.0000 </r>
       <r>   -6.0493    1.0000 </r>
       <r>   -4.8234    1.0000 </r>
       <r>   -4.0882    1.0000 </r>
       <r>   -1.6055    0.0000 </r>
       <r>   -1.5010    0.0000 </r>
       <r>   -1.3422    0.0000 </r>
       <r>   -0.6330    0.0000 </r>
       <r>    2.0722    0.0000 </r>
       <r>    2.1797    0.0000 </r>
       <r>    2.4923    0.0000 </r>
       <r>    2.7304    0.0000 </r>
       <r>    3.0036    0.0000 </r>
       <r>    3.4713    0.0000 </r>
       <r>    3.6726    0.0000 </r>
       <r>    4.0449    0.0000 </r>
      </set>
      <set comment="kpoint 24">
       <r>  -38.9323    1.0000 </r>
       <r>  -38.8752    1.0000 </r>
       <r>  -38.8160    1.0000 </r>
       <r>  -17.4408    1.0000 </r>
       <r>  -16.3803    1.0000 </r>
       <r>   -8.9425    1.0000 </r>
       <r>   -7.2222    1.0000 </r>
       <r>   -6.6344    1.0000 </r>
       <r>   -6.1267    1.0000 </r>
       <r>   -6.1060    1.0000 </r>
       <r>   -4.8151    1.0000 </r>
       <r>   -4.1194    1.0000 </r>
       <r>   -1.6353    0.0000 </r>
       <r>   -1.5049    0.0000 </r>
       <r>   -1.3655    0.0000 </r>
       <r>   -0.5869    0.0000 </r>
       <r>    2.1173    0.0000 </r>
       <r>    2.2237    0.0000 </r>
       <r>    2.5385    0.0000 </r>
       <r>    2.7760    0.0000 </r>
       <r>    3.0509    0.0000 </r>
       <r>    3.5161    0.0000 </r>
       <r>    3.7526    0.0000 </r>
       <r>    4.1128    0.0000 </r>
      </set>
      <set comment="kpoint 25">
       <r>  -38.9311    1.0000 </r>
       <r>  -38.8813    1.0000 </r>
       <r>  -38.8178    1.0000 </r>
       <r>  -17.4093    1.0000 </r>
       <r>  -16.3674    1.0000 </r>
       <r>   -8.9138    1.0000 </r>
       <r>   -7.2683    1.0000 </r>
       <r>   -6.6799    1.0000 </r>
       <r>   -6.1643    1.0000 </r>
       <r>   -6.0991    1.0000 </r>
       <r>   -4.8086    1.0000 </r>
       <r>   -4.1520    1.0000 </r>
       <r>   -1.6641    0.0000 </r>
       <r>   -1.5067    0.0000 </r>
       <r>   -1.3878    0.0000 </r>
       <r>   -0.5404    0.0000 </r>
       <r>    2.1638    0.0000 </r>
       <r>    2.2695    0.0000 </r>
       <r>    2.5867    0.0000 </r>
       <r>    2.8236    0.0000 </r>
       <r>    3.0998    0.0000 </r>
       <r>    3.5628    0.0000 </r>
       <r>    3.8293    0.0000 </r>
       <r>    4.1868    0.0000 </r>
      </set>
      <set comment="kpoint 26">
       <r>  -38.9298    1.0000 </r>
       <r>  -38.8876    1.0000 </r>
       <r>  -38.8198    1.0000 </r>
       <r>  -17.3770    1.0000 </r>
       <r>  -16.3541    1.0000 </r>
       <r>   -8.8854    1.0000 </r>
       <r>   -7.3136    1.0000 </r>
       <r>   -6.7248    1.0000 </r>
       <r>   -6.2240    1.0000 </r>
       <r>   -6.0716    1.0000 </r>
       <r>   -4.8039    1.0000 </r>
       <r>   -4.1860    1.0000 </r>
       <r>   -1.6918    0.0000 </r>
       <r>   -1.5065    0.0000 </r>
       <r>   -1.4088    0.0000 </r>
       <r>   -0.4934    0.0000 </r>
       <r>    2.2117    0.0000 </r>
       <r>    2.3171    0.0000 </r>
       <r>    2.6370    0.0000 </r>
       <r>    2.8732    0.0000 </r>
       <r>    3.1504    0.0000 </r>
       <r>    3.6113    0.0000 </r>
       <r>    3.9025    0.0000 </r>
       <r>    4.2666    0.0000 </r>
      </set>
      <set comment="kpoint 27">
       <r>  -38.9284    1.0000 </r>
       <r>  -38.8939    1.0000 </r>
       <r>  -38.8218    1.0000 </r>
       <r>  -17.3436    1.0000 </r>
       <r>  -16.3404    1.0000 </r>
       <r>   -8.8574    1.0000 </r>
       <r>   -7.3578    1.0000 </r>
       <r>   -6.7691    1.0000 </r>
       <r>   -6.2847    1.0000 </r>
       <r>   -6.0442    1.0000 </r>
       <r>   -4.8009    1.0000 </r>
       <r>   -4.2211    1.0000 </r>
       <r>   -1.7186    0.0000 </r>
       <r>   -1.5041    0.0000 </r>
       <r>   -1.4283    0.0000 </r>
       <r>   -0.4461    0.0000 </r>
       <r>    2.2609    0.0000 </r>
       <r>    2.3664    0.0000 </r>
       <r>    2.6892    0.0000 </r>
       <r>    2.9247    0.0000 </r>
       <r>    3.2027    0.0000 </r>
       <r>    3.6618    0.0000 </r>
       <r>    3.9727    0.0000 </r>
       <r>    4.3511    0.0000 </r>
      </set>
      <set comment="kpoint 28">
       <r>  -38.9271    1.0000 </r>
       <r>  -38.9003    1.0000 </r>
       <r>  -38.8239    1.0000 </r>
       <r>  -17.3094    1.0000 </r>
       <r>  -16.3264    1.0000 </r>
       <r>   -8.8301    1.0000 </r>
       <r>   -7.4004    1.0000 </r>
       <r>   -6.8129    1.0000 </r>
       <r>   -6.3461    1.0000 </r>
       <r>   -6.0174    1.0000 </r>
       <r>   -4.7996    1.0000 </r>
       <r>   -4.2570    1.0000 </r>
       <r>   -1.7446    0.0000 </r>
       <r>   -1.4996    0.0000 </r>
       <r>   -1.4460    0.0000 </r>
       <r>   -0.3989    0.0000 </r>
       <r>    2.3116    0.0000 </r>
       <r>    2.4175    0.0000 </r>
       <r>    2.7435    0.0000 </r>
       <r>    2.9782    0.0000 </r>
       <r>    3.2568    0.0000 </r>
       <r>    3.7141    0.0000 </r>
       <r>    4.0406    0.0000 </r>
       <r>    4.4389    0.0000 </r>
      </set>
      <set comment="kpoint 29">
       <r>  -38.9257    1.0000 </r>
       <r>  -38.9068    1.0000 </r>
       <r>  -38.8260    1.0000 </r>
       <r>  -17.2743    1.0000 </r>
       <r>  -16.3120    1.0000 </r>
       <r>   -8.8039    1.0000 </r>
       <r>   -7.4413    1.0000 </r>
       <r>   -6.8565    1.0000 </r>
       <r>   -6.4079    1.0000 </r>
       <r>   -5.9913    1.0000 </r>
       <r>   -4.7999    1.0000 </r>
       <r>   -4.2936    1.0000 </r>
       <r>   -1.7696    0.0000 </r>
       <r>   -1.4932    0.0000 </r>
       <r>   -1.4618    0.0000 </r>
       <r>   -0.3517    0.0000 </r>
       <r>    2.3636    0.0000 </r>
       <r>    2.4703    0.0000 </r>
       <r>    2.7997    0.0000 </r>
       <r>    3.0337    0.0000 </r>
       <r>    3.3126    0.0000 </r>
       <r>    3.7683    0.0000 </r>
       <r>    4.1067    0.0000 </r>
       <r>    4.5285    0.0000 </r>
      </set>
      <set comment="kpoint 30">
       <r>  -38.9243    1.0000 </r>
       <r>  -38.9133    1.0000 </r>
       <r>  -38.8283    1.0000 </r>
       <r>  -17.2385    1.0000 </r>
       <r>  -16.2973    1.0000 </r>
       <r>   -8.7791    1.0000 </r>
       <r>   -7.4800    1.0000 </r>
       <r>   -6.9000    1.0000 </r>
       <r>   -6.4696    1.0000 </r>
       <r>   -5.9663    1.0000 </r>
       <r>   -4.8019    1.0000 </r>
       <r>   -4.3306    1.0000 </r>
       <r>   -1.7939    0.0000 </r>
       <r>   -1.4847    0.0000 </r>
       <r>   -1.4754    0.0000 </r>
       <r>   -0.3047    0.0000 </r>
       <r>    2.4169    0.0000 </r>
       <r>    2.5247    0.0000 </r>
       <r>    2.8580    0.0000 </r>
       <r>    3.0912    0.0000 </r>
       <r>    3.3702    0.0000 </r>
       <r>    3.8244    0.0000 </r>
       <r>    4.1720    0.0000 </r>
       <r>    4.6178    0.0000 </r>
      </set>
      <set comment="kpoint 31">
       <r>  -38.9229    1.0000 </r>
       <r>  -38.9198    1.0000 </r>
       <r>  -38.8306    1.0000 </r>
       <r>  -17.2019    1.0000 </r>
       <r>  -16.2823    1.0000 </r>
       <r>   -8.7560    1.0000 </r>
       <r>   -7.5160    1.0000 </r>
       <r>   -6.9437    1.0000 </r>
       <r>   -6.5306    1.0000 </r>
       <r>   -5.9426    1.0000 </r>
       <r>   -4.8055    1.0000 </r>
       <r>   -4.3674    1.0000 </r>
       <r>   -1.8172    0.0000 </r>
       <r>   -1.4870    0.0000 </r>
       <r>   -1.4743    0.0000 </r>
       <r>   -0.2583    0.0000 </r>
       <r>    2.4716    0.0000 </r>
       <r>    2.5808    0.0000 </r>
       <r>    2.9183    0.0000 </r>
       <r>    3.1506    0.0000 </r>
       <r>    3.4297    0.0000 </r>
       <r>    3.8823    0.0000 </r>
       <r>    4.2370    0.0000 </r>
       <r>    4.7051    0.0000 </r>
      </set>
      <set comment="kpoint 32">
       <r>  -38.9264    1.0000 </r>
       <r>  -38.9215    1.0000 </r>
       <r>  -38.8330    1.0000 </r>
       <r>  -17.1646    1.0000 </r>
       <r>  -16.2669    1.0000 </r>
       <r>   -8.7350    1.0000 </r>
       <r>   -7.5492    1.0000 </r>
       <r>   -6.9881    1.0000 </r>
       <r>   -6.5905    1.0000 </r>
       <r>   -5.9207    1.0000 </r>
       <r>   -4.8107    1.0000 </r>
       <r>   -4.4039    1.0000 </r>
       <r>   -1.8395    0.0000 </r>
       <r>   -1.4964    0.0000 </r>
       <r>   -1.4620    0.0000 </r>
       <r>   -0.2123    0.0000 </r>
       <r>    2.5276    0.0000 </r>
       <r>    2.6384    0.0000 </r>
       <r>    2.9806    0.0000 </r>
       <r>    3.2120    0.0000 </r>
       <r>    3.4910    0.0000 </r>
       <r>    3.9419    0.0000 </r>
       <r>    4.3020    0.0000 </r>
       <r>    4.7880    0.0000 </r>
      </set>
      <set comment="kpoint 33">
       <r>  -38.9329    1.0000 </r>
       <r>  -38.9200    1.0000 </r>
       <r>  -38.8355    1.0000 </r>
       <r>  -17.1267    1.0000 </r>
       <r>  -16.2514    1.0000 </r>
       <r>   -8.7165    1.0000 </r>
       <r>   -7.5789    1.0000 </r>
       <r>   -7.0336    1.0000 </r>
       <r>   -6.6486    1.0000 </r>
       <r>   -5.9009    1.0000 </r>
       <r>   -4.8175    1.0000 </r>
       <r>   -4.4395    1.0000 </r>
       <r>   -1.8606    0.0000 </r>
       <r>   -1.5037    0.0000 </r>
       <r>   -1.4480    0.0000 </r>
       <r>   -0.1672    0.0000 </r>
       <r>    2.5849    0.0000 </r>
       <r>    2.6977    0.0000 </r>
       <r>    3.0449    0.0000 </r>
       <r>    3.2753    0.0000 </r>
       <r>    3.5541    0.0000 </r>
       <r>    4.0034    0.0000 </r>
       <r>    4.3675    0.0000 </r>
       <r>    4.8634    0.0000 </r>
      </set>
      <set comment="kpoint 34">
       <r>  -38.9394    1.0000 </r>
       <r>  -38.9186    1.0000 </r>
       <r>  -38.8381    1.0000 </r>
       <r>  -17.0882    1.0000 </r>
       <r>  -16.2355    1.0000 </r>
       <r>   -8.7008    1.0000 </r>
       <r>   -7.6050    1.0000 </r>
       <r>   -7.0807    1.0000 </r>
       <r>   -6.7041    1.0000 </r>
       <r>   -5.8837    1.0000 </r>
       <r>   -4.8258    1.0000 </r>
       <r>   -4.4739    1.0000 </r>
       <r>   -1.8804    0.0000 </r>
       <r>   -1.5091    0.0000 </r>
       <r>   -1.4323    0.0000 </r>
       <r>   -0.1229    0.0000 </r>
       <r>    2.6435    0.0000 </r>
       <r>    2.7585    0.0000 </r>
       <r>    3.1112    0.0000 </r>
       <r>    3.3406    0.0000 </r>
       <r>    3.6190    0.0000 </r>
       <r>    4.0667    0.0000 </r>
       <r>    4.4336    0.0000 </r>
       <r>    4.9279    0.0000 </r>
      </set>
      <set comment="kpoint 35">
       <r>  -38.9459    1.0000 </r>
       <r>  -38.9171    1.0000 </r>
       <r>  -38.8407    1.0000 </r>
       <r>  -17.0492    1.0000 </r>
       <r>  -16.2195    1.0000 </r>
       <r>   -8.6882    1.0000 </r>
       <r>   -7.6270    1.0000 </r>
       <r>   -7.1299    1.0000 </r>
       <r>   -6.7563    1.0000 </r>
       <r>   -5.8694    1.0000 </r>
       <r>   -4.8356    1.0000 </r>
       <r>   -4.5067    1.0000 </r>
       <r>   -1.8985    0.0000 </r>
       <r>   -1.5128    0.0000 </r>
       <r>   -1.4150    0.0000 </r>
       <r>   -0.0796    0.0000 </r>
       <r>    2.7033    0.0000 </r>
       <r>    2.8208    0.0000 </r>
       <r>    3.1796    0.0000 </r>
       <r>    3.4079    0.0000 </r>
       <r>    3.6857    0.0000 </r>
       <r>    4.1317    0.0000 </r>
       <r>    4.5006    0.0000 </r>
       <r>    4.9772    0.0000 </r>
      </set>
      <set comment="kpoint 36">
       <r>  -38.9522    1.0000 </r>
       <r>  -38.9157    1.0000 </r>
       <r>  -38.8434    1.0000 </r>
       <r>  -17.0097    1.0000 </r>
       <r>  -16.2033    1.0000 </r>
       <r>   -8.6791    1.0000 </r>
       <r>   -7.6447    1.0000 </r>
       <r>   -7.1816    1.0000 </r>
       <r>   -6.8048    1.0000 </r>
       <r>   -5.8586    1.0000 </r>
       <r>   -4.8469    1.0000 </r>
       <r>   -4.5373    1.0000 </r>
       <r>   -1.9147    0.0000 </r>
       <r>   -1.5148    0.0000 </r>
       <r>   -1.3962    0.0000 </r>
       <r>   -0.0374    0.0000 </r>
       <r>    2.7642    0.0000 </r>
       <r>    2.8846    0.0000 </r>
       <r>    3.2499    0.0000 </r>
       <r>    3.4770    0.0000 </r>
       <r>    3.7543    0.0000 </r>
       <r>    4.1985    0.0000 </r>
       <r>    4.5683    0.0000 </r>
       <r>    5.0077    0.0000 </r>
      </set>
      <set comment="kpoint 37">
       <r>  -38.9586    1.0000 </r>
       <r>  -38.9142    1.0000 </r>
       <r>  -38.8462    1.0000 </r>
       <r>  -16.9699    1.0000 </r>
       <r>  -16.1868    1.0000 </r>
       <r>   -8.6735    1.0000 </r>
       <r>   -7.6580    1.0000 </r>
       <r>   -7.2361    1.0000 </r>
       <r>   -6.8490    1.0000 </r>
       <r>   -5.8516    1.0000 </r>
       <r>   -4.8596    1.0000 </r>
       <r>   -4.5654    1.0000 </r>
       <r>   -1.9288    0.0000 </r>
       <r>   -1.5155    0.0000 </r>
       <r>   -1.3760    0.0000 </r>
       <r>    0.0034    0.0000 </r>
       <r>    2.8262    0.0000 </r>
       <r>    2.9498    0.0000 </r>
       <r>    3.3223    0.0000 </r>
       <r>    3.5482    0.0000 </r>
       <r>    3.8247    0.0000 </r>
       <r>    4.2670    0.0000 </r>
       <r>    4.6367    0.0000 </r>
       <r>    5.0181    0.0000 </r>
      </set>
      <set comment="kpoint 38">
       <r>  -38.9648    1.0000 </r>
       <r>  -38.9128    1.0000 </r>
       <r>  -38.8490    1.0000 </r>
       <r>  -16.9297    1.0000 </r>
       <r>  -16.1703    1.0000 </r>
       <r>   -8.6714    1.0000 </r>
       <r>   -7.6668    1.0000 </r>
       <r>   -7.2932    1.0000 </r>
       <r>   -6.8887    1.0000 </r>
       <r>   -5.8488    1.0000 </r>
       <r>   -4.8737    1.0000 </r>
       <r>   -4.5905    1.0000 </r>
       <r>   -1.9404    0.0000 </r>
       <r>   -1.5151    0.0000 </r>
       <r>   -1.3545    0.0000 </r>
       <r>    0.0429    0.0000 </r>
       <r>    2.8893    0.0000 </r>
       <r>    3.0164    0.0000 </r>
       <r>    3.3967    0.0000 </r>
       <r>    3.6212    0.0000 </r>
       <r>    3.8970    0.0000 </r>
       <r>    4.3371    0.0000 </r>
       <r>    4.7053    0.0000 </r>
       <r>    5.0106    0.0000 </r>
      </set>
      <set comment="kpoint 39">
       <r>  -38.9709    1.0000 </r>
       <r>  -38.9113    1.0000 </r>
       <r>  -38.8520    1.0000 </r>
       <r>  -16.8892    1.0000 </r>
       <r>  -16.1536    1.0000 </r>
       <r>   -8.6729    1.0000 </r>
       <r>   -7.6713    1.0000 </r>
       <r>   -7.3530    1.0000 </r>
       <r>   -6.9241    1.0000 </r>
       <r>   -5.8505    1.0000 </r>
       <r>   -4.8893    1.0000 </r>
       <r>   -4.6124    1.0000 </r>
       <r>   -1.9494    0.0000 </r>
       <r>   -1.5138    0.0000 </r>
       <r>   -1.3319    0.0000 </r>
       <r>    0.0808    0.0000 </r>
       <r>    2.9533    0.0000 </r>
       <r>    3.0843    0.0000 </r>
       <r>    3.4731    0.0000 </r>
       <r>    3.6963    0.0000 </r>
       <r>    3.9710    0.0000 </r>
       <r>    4.4088    0.0000 </r>
       <r>    4.7727    0.0000 </r>
       <r>    4.9902    0.0000 </r>
      </set>
      <set comment="kpoint 40">
       <r>  -38.9769    1.0000 </r>
       <r>  -38.9099    1.0000 </r>
       <r>  -38.8550    1.0000 </r>
       <r>  -16.8486    1.0000 </r>
       <r>  -16.1368    1.0000 </r>
       <r>   -8.6776    1.0000 </r>
       <r>   -7.6717    1.0000 </r>
       <r>   -7.4150    1.0000 </r>
       <r>   -6.9552    1.0000 </r>
       <r>   -5.8569    1.0000 </r>
       <r>   -4.9062    1.0000 </r>
       <r>   -4.6308    1.0000 </r>
       <r>   -1.9556    0.0000 </r>
       <r>   -1.5118    0.0000 </r>
       <r>   -1.3082    0.0000 </r>
       <r>    0.1172    0.0000 </r>
       <r>    3.0182    0.0000 </r>
       <r>    3.1535    0.0000 </r>
       <r>    3.5516    0.0000 </r>
       <r>    3.7732    0.0000 </r>
       <r>    4.0468    0.0000 </r>
       <r>    4.4822    0.0000 </r>
       <r>    4.8326    0.0000 </r>
       <r>    4.9673    0.0000 </r>
      </set>
      <set comment="kpoint 41">
       <r>  -38.9828    1.0000 </r>
       <r>  -38.9084    1.0000 </r>
       <r>  -38.8581    1.0000 </r>
       <r>  -16.8079    1.0000 </r>
       <r>  -16.1200    1.0000 </r>
       <r>   -8.6853    1.0000 </r>
       <r>   -7.6684    1.0000 </r>
       <r>   -7.4788    1.0000 </r>
       <r>   -6.9824    1.0000 </r>
       <r>   -5.8683    1.0000 </r>
       <r>   -4.9244    1.0000 </r>
       <r>   -4.6456    1.0000 </r>
       <r>   -1.9586    0.0000 </r>
       <r>   -1.5093    0.0000 </r>
       <r>   -1.2836    0.0000 </r>
       <r>    0.1519    0.0000 </r>
       <r>    3.0838    0.0000 </r>
       <r>    3.2239    0.0000 </r>
       <r>    3.6320    0.0000 </r>
       <r>    3.8521    0.0000 </r>
       <r>    4.1244    0.0000 </r>
       <r>    4.5571    0.0000 </r>
       <r>    4.8566    0.0000 </r>
       <r>    4.9735    0.0000 </r>
      </set>
      <set comment="kpoint 42">
       <r>  -38.9885    1.0000 </r>
       <r>  -38.9070    1.0000 </r>
       <r>  -38.8612    1.0000 </r>
       <r>  -16.7670    1.0000 </r>
       <r>  -16.1031    1.0000 </r>
       <r>   -8.6954    1.0000 </r>
       <r>   -7.6619    1.0000 </r>
[...]
       <r>    -4.7345     0.9854    11.0533 </r>
       <r>    -4.5621     0.8391    11.1980 </r>
       <r>    -4.3896     1.0005    11.3705 </r>
       <r>    -4.2172     0.9448    11.5334 </r>
       <r>    -4.0448     0.8970    11.6881 </r>
       <r>    -3.8723     1.1664    11.8892 </r>
       <r>    -3.6999     0.6420    11.9999 </r>
       <r>    -3.5275     0.0004    12.0000 </r>
       <r>    -3.3551     0.0000    12.0000 </r>
       <r>    -3.1826     0.0000    12.0000 </r>
       <r>    -3.0102     0.0000    12.0000 </r>
       <r>    -2.8378     0.0000    12.0000 </r>
       <r>    -2.6653     0.0000    12.0000 </r>
       <r>    -2.4929     0.0000    12.0000 </r>
       <r>    -2.3205     0.3037    12.0524 </r>
       <r>    -2.1480     0.5029    12.1391 </r>
       <r>    -1.9756     0.4542    12.2174 </r>
       <r>    -1.8032     1.5941    12.4923 </r>
       <r>    -1.6307     1.9476    12.8281 </r>
       <r>    -1.4583     1.7015    13.1215 </r>
       <r>    -1.2859     2.4903    13.5509 </r>
       <r>    -1.1134     2.5207    13.9856 </r>
       <r>    -0.9410     1.9731    14.3258 </r>
       <r>    -0.7686     1.6218    14.6054 </r>
       <r>    -0.5961     1.1983    14.8121 </r>
       <r>    -0.4237     1.0875    14.9996 </r>
       <r>    -0.2513     0.5780    15.0992 </r>
       <r>    -0.0789     0.8662    15.2486 </r>
       <r>     0.0936     0.8775    15.3999 </r>
       <r>     0.2660     1.2168    15.6097 </r>
       <r>     0.4384     0.7489    15.7388 </r>
       <r>     0.6109     0.5987    15.8421 </r>
       <r>     0.7833     0.8572    15.9899 </r>
       <r>     0.9557     0.0587    16.0000 </r>
       <r>     1.1282     0.0000    16.0000 </r>
       <r>     1.3006     0.0000    16.0000 </r>
       <r>     1.4730     0.0934    16.0161 </r>
       <r>     1.6455     0.4831    16.0994 </r>
       <r>     1.8179     0.8526    16.2464 </r>
       <r>     1.9903     0.7227    16.3710 </r>
       <r>     2.1628     0.9987    16.5433 </r>
       <r>     2.3352     2.0556    16.8977 </r>
       <r>     2.5076     1.6089    17.1751 </r>
       <r>     2.6801     1.6067    17.4522 </r>
       <r>     2.8525     1.4624    17.7043 </r>
       <r>     3.0249     1.5669    17.9745 </r>
       <r>     3.1973     1.7814    18.2817 </r>
       <r>     3.3698     1.5952    18.5568 </r>
       <r>     3.5422     1.4748    18.8111 </r>
       <r>     3.7146     1.4556    19.0620 </r>
       <r>     3.8871     1.6820    19.3521 </r>
       <r>     4.0595     1.7347    19.6512 </r>
       <r>     4.2319     1.4796    19.9063 </r>
       <r>     4.4044     1.8563    20.2264 </r>
       <r>     4.5768     1.3221    20.4544 </r>
       <r>     4.7492     1.3062    20.6796 </r>
       <r>     4.9217     1.2011    20.8867 </r>
       <r>     5.0941     1.7491    21.1883 </r>
       <r>     5.2665     1.2079    21.3966 </r>
       <r>     5.4390     1.0542    21.5784 </r>
       <r>     5.6114     1.2418    21.7925 </r>
       <r>     5.7838     1.3588    22.0268 </r>
       <r>     5.9563     1.3215    22.2547 </r>
       <r>     6.1287     0.6646    22.3693 </r>
       <r>     6.3011     1.0517    22.5506 </r>
       <r>     6.4735     1.4827    22.8063 </r>
       <r>     6.6460     1.0341    22.9846 </r>
       <r>     6.8184     1.3367    23.2151 </r>
       <r>     6.9908     1.0624    23.3982 </r>
       <r>     7.1633     0.8611    23.5467 </r>
       <r>     7.3357     0.4776    23.6291 </r>
       <r>     7.5081     0.5046    23.7161 </r>
       <r>     7.6806     0.8299    23.8592 </r>
       <r>     7.8530     0.5179    23.9485 </r>
       <r>     8.0254     0.2986    24.0000 </r>
       <r>     8.1979     0.0001    24.0000 </r>
       <r>     8.3703     0.0000    24.0000 </r>
       <r>     8.5427     0.0000    24.0000 </r>
       <r>     8.7152     0.0000    24.0000 </r>
       <r>     8.8876     0.0000    24.0000 </r>
       <r>     9.0600     0.0000    24.0000 </r>
       <r>     9.2325     0.0000    24.0000 </r>
       <r>     9.4049     0.0000    24.0000 </r>
       <r>     9.5773     0.0000    24.0000 </r>
       <r>     9.7497     0.0000    24.0000 </r>
       <r>     9.9222     0.0000    24.0000 </r>
       <r>    10.0946     0.0000    24.0000 </r>
       <r>    10.2670     0.0000    24.0000 </r>
      </set>
      <set comment="spin 2">
       <r>   -41.4624     0.0000     0.0000 </r>
       <r>   -41.2900     0.0000     0.0000 </r>
       <r>   -41.1176     0.0000     0.0000 </r>
       <r>   -40.9451     0.0000     0.0000 </r>
       <r>   -40.7727     0.0000     0.0000 </r>
       <r>   -40.6003     0.0000     0.0000 </r>
       <r>   -40.4278     0.0000     0.0000 </r>
       <r>   -40.2554     0.0000     0.0000 </r>
       <r>   -40.0830     0.0000     0.0000 </r>
       <r>   -39.9106     0.0000     0.0000 </r>
       <r>   -39.7381     0.0000     0.0000 </r>
       <r>   -39.5657     0.0000     0.0000 </r>
       <r>   -39.3933     0.0000     0.0000 </r>
       <r>   -39.2208     0.0007     0.0001 </r>
       <r>   -39.0484     2.4327     0.4196 </r>
       <r>   -38.8760     9.0874     1.9866 </r>
       <r>   -38.7035     5.8714     2.9990 </r>
       <r>   -38.5311     0.0059     3.0000 </r>
       <r>   -38.3587     0.0000     3.0000 </r>
       <r>   -38.1862     0.0000     3.0000 </r>
       <r>   -38.0138     0.0000     3.0000 </r>
       <r>   -37.8414     0.0000     3.0000 </r>
       <r>   -37.6689     0.0000     3.0000 </r>
       <r>   -37.4965     0.0000     3.0000 </r>
       <r>   -37.3241     0.0000     3.0000 </r>
       <r>   -37.1516     0.0000     3.0000 </r>
       <r>   -36.9792     0.0000     3.0000 </r>
       <r>   -36.8068     0.0000     3.0000 </r>
       <r>   -36.6343     0.0000     3.0000 </r>
       <r>   -36.4619     0.0000     3.0000 </r>
       <r>   -36.2895     0.0000     3.0000 </r>
       <r>   -36.1171     0.0000     3.0000 </r>
       <r>   -35.9446     0.0000     3.0000 </r>
       <r>   -35.7722     0.0000     3.0000 </r>
       <r>   -35.5998     0.0000     3.0000 </r>
       <r>   -35.4273     0.0000     3.0000 </r>
       <r>   -35.2549     0.0000     3.0000 </r>
       <r>   -35.0825     0.0000     3.0000 </r>
       <r>   -34.9100     0.0000     3.0000 </r>
       <r>   -34.7376     0.0000     3.0000 </r>
       <r>   -34.5652     0.0000     3.0000 </r>
       <r>   -34.3927     0.0000     3.0000 </r>
       <r>   -34.2203     0.0000     3.0000 </r>
       <r>   -34.0479     0.0000     3.0000 </r>
       <r>   -33.8754     0.0000     3.0000 </r>
       <r>   -33.7030     0.0000     3.0000 </r>
       <r>   -33.5306     0.0000     3.0000 </r>
       <r>   -33.3581     0.0000     3.0000 </r>
       <r>   -33.1857     0.0000     3.0000 </r>
       <r>   -33.0133     0.0000     3.0000 </r>
       <r>   -32.8409     0.0000     3.0000 </r>
       <r>   -32.6684     0.0000     3.0000 </r>
       <r>   -32.4960     0.0000     3.0000 </r>
       <r>   -32.3236     0.0000     3.0000 </r>
       <r>   -32.1511     0.0000     3.0000 </r>
       <r>   -31.9787     0.0000     3.0000 </r>
       <r>   -31.8063     0.0000     3.0000 </r>
       <r>   -31.6338     0.0000     3.0000 </r>
       <r>   -31.4614     0.0000     3.0000 </r>
       <r>   -31.2890     0.0000     3.0000 </r>
       <r>   -31.1165     0.0000     3.0000 </r>
       <r>   -30.9441     0.0000     3.0000 </r>
       <r>   -30.7717     0.0000     3.0000 </r>
       <r>   -30.5992     0.0000     3.0000 </r>
       <r>   -30.4268     0.0000     3.0000 </r>
       <r>   -30.2544     0.0000     3.0000 </r>
       <r>   -30.0819     0.0000     3.0000 </r>
       <r>   -29.9095     0.0000     3.0000 </r>
       <r>   -29.7371     0.0000     3.0000 </r>
       <r>   -29.5647     0.0000     3.0000 </r>
       <r>   -29.3922     0.0000     3.0000 </r>
       <r>   -29.2198     0.0000     3.0000 </r>
       <r>   -29.0474     0.0000     3.0000 </r>
       <r>   -28.8749     0.0000     3.0000 </r>
       <r>   -28.7025     0.0000     3.0000 </r>
       <r>   -28.5301     0.0000     3.0000 </r>
       <r>   -28.3576     0.0000     3.0000 </r>
       <r>   -28.1852     0.0000     3.0000 </r>
       <r>   -28.0128     0.0000     3.0000 </r>
       <r>   -27.8403     0.0000     3.0000 </r>
       <r>   -27.6679     0.0000     3.0000 </r>
       <r>   -27.4955     0.0000     3.0000 </r>
       <r>   -27.3230     0.0000     3.0000 </r>
       <r>   -27.1506     0.0000     3.0000 </r>
       <r>   -26.9782     0.0000     3.0000 </r>
       <r>   -26.8057     0.0000     3.0000 </r>
       <r>   -26.6333     0.0000     3.0000 </r>
       <r>   -26.4609     0.0000     3.0000 </r>
       <r>   -26.2885     0.0000     3.0000 </r>
       <r>   -26.1160     0.0000     3.0000 </r>
       <r>   -25.9436     0.0000     3.0000 </r>
       <r>   -25.7712     0.0000     3.0000 </r>
       <r>   -25.5987     0.0000     3.0000 </r>
       <r>   -25.4263     0.0000     3.0000 </r>
       <r>   -25.2539     0.0000     3.0000 </r>
       <r>   -25.0814     0.0000     3.0000 </r>
       <r>   -24.9090     0.0000     3.0000 </r>
       <r>   -24.7366     0.0000     3.0000 </r>
       <r>   -24.5641     0.0000     3.0000 </r>
       <r>   -24.3917     0.0000     3.0000 </r>
       <r>   -24.2193     0.0000     3.0000 </r>
       <r>   -24.0468     0.0000     3.0000 </r>
       <r>   -23.8744     0.0000     3.0000 </r>
       <r>   -23.7020     0.0000     3.0000 </r>
       <r>   -23.5295     0.0000     3.0000 </r>
       <r>   -23.3571     0.0000     3.0000 </r>
       <r>   -23.1847     0.0000     3.0000 </r>
       <r>   -23.0123     0.0000     3.0000 </r>
       <r>   -22.8398     0.0000     3.0000 </r>
       <r>   -22.6674     0.0000     3.0000 </r>
       <r>   -22.4950     0.0000     3.0000 </r>
       <r>   -22.3225     0.0000     3.0000 </r>
       <r>   -22.1501     0.0000     3.0000 </r>
       <r>   -21.9777     0.0000     3.0000 </r>
       <r>   -21.8052     0.0000     3.0000 </r>
       <r>   -21.6328     0.0000     3.0000 </r>
       <r>   -21.4604     0.0000     3.0000 </r>
       <r>   -21.2879     0.0000     3.0000 </r>
       <r>   -21.1155     0.0000     3.0000 </r>
       <r>   -20.9431     0.0000     3.0000 </r>
       <r>   -20.7706     0.0000     3.0000 </r>
       <r>   -20.5982     0.0000     3.0000 </r>
       <r>   -20.4258     0.0000     3.0000 </r>
       <r>   -20.2533     0.0000     3.0000 </r>
       <r>   -20.0809     0.0000     3.0000 </r>
       <r>   -19.9085     0.0000     3.0000 </r>
       <r>   -19.7361     0.0000     3.0000 </r>
       <r>   -19.5636     0.0000     3.0000 </r>
       <r>   -19.3912     0.0000     3.0000 </r>
       <r>   -19.2188     0.0000     3.0000 </r>
       <r>   -19.0463     0.0000     3.0000 </r>
       <r>   -18.8739     0.0000     3.0000 </r>
       <r>   -18.7015     0.0000     3.0000 </r>
       <r>   -18.5290     0.0000     3.0000 </r>
       <r>   -18.3566     0.0000     3.0000 </r>
       <r>   -18.1842     0.0000     3.0000 </r>
       <r>   -18.0117     0.0000     3.0000 </r>
       <r>   -17.8393     0.0743     3.0128 </r>
       <r>   -17.6669     0.6888     3.1316 </r>
       <r>   -17.4944     0.3639     3.1943 </r>
       <r>   -17.3220     0.2836     3.2432 </r>
       <r>   -17.1496     0.2490     3.2862 </r>
       <r>   -16.9771     0.2315     3.3261 </r>
       <r>   -16.8047     0.2241     3.3647 </r>
       <r>   -16.6323     0.2259     3.4037 </r>
       <r>   -16.4599     1.0518     3.5851 </r>
       <r>   -16.2874     1.0160     3.7602 </r>
       <r>   -16.1150     0.9944     3.9317 </r>
       <r>   -15.9426     1.9809     4.2733 </r>
       <r>   -15.7701     2.8876     4.7712 </r>
       <r>   -15.5977     1.3258     4.9998 </r>
       <r>   -15.4253     0.0011     5.0000 </r>
       <r>   -15.2528     0.0000     5.0000 </r>
       <r>   -15.0804     0.0000     5.0000 </r>
       <r>   -14.9080     0.0000     5.0000 </r>
       <r>   -14.7355     0.0000     5.0000 </r>
       <r>   -14.5631     0.0000     5.0000 </r>
       <r>   -14.3907     0.0000     5.0000 </r>
       <r>   -14.2182     0.0000     5.0000 </r>
       <r>   -14.0458     0.0000     5.0000 </r>
       <r>   -13.8734     0.0000     5.0000 </r>
       <r>   -13.7009     0.0000     5.0000 </r>
       <r>   -13.5285     0.0000     5.0000 </r>
       <r>   -13.3561     0.0000     5.0000 </r>
       <r>   -13.1837     0.0000     5.0000 </r>
       <r>   -13.0112     0.0000     5.0000 </r>
       <r>   -12.8388     0.0000     5.0000 </r>
       <r>   -12.6664     0.0000     5.0000 </r>
       <r>   -12.4939     0.0000     5.0000 </r>
       <r>   -12.3215     0.0000     5.0000 </r>
       <r>   -12.1491     0.0000     5.0000 </r>
       <r>   -11.9766     0.0000     5.0000 </r>
       <r>   -11.8042     0.0000     5.0000 </r>
       <r>   -11.6318     0.0000     5.0000 </r>
       <r>   -11.4593     0.0000     5.0000 </r>
       <r>   -11.2869     0.0000     5.0000 </r>
       <r>   -11.1145     0.0000     5.0000 </r>
       <r>   -10.9420     0.0000     5.0000 </r>
       <r>   -10.7696     0.0000     5.0000 </r>
       <r>   -10.5972     0.0000     5.0000 </r>
       <r>   -10.4247     0.0000     5.0000 </r>
       <r>   -10.2523     0.0000     5.0000 </r>
       <r>   -10.0799     0.0000     5.0000 </r>
       <r>    -9.9075     0.0000     5.0000 </r>
       <r>    -9.7350     0.0000     5.0000 </r>
       <r>    -9.5626     0.0028     5.0005 </r>
       <r>    -9.3902     0.7355     5.1273 </r>
       <r>    -9.2177     1.1607     5.3275 </r>
       <r>    -9.0453     1.3033     5.5522 </r>
       <r>    -8.8729     1.3686     5.7882 </r>
       <r>    -8.7004     1.8283     6.1034 </r>
       <r>    -8.5280     1.1347     6.2991 </r>
       <r>    -8.3556     0.9947     6.4706 </r>
       <r>    -8.1831     0.3660     6.5337 </r>
       <r>    -8.0107     0.1864     6.5659 </r>
       <r>    -7.8383     0.7207     6.6901 </r>
       <r>    -7.6658     2.6564     7.1482 </r>
       <r>    -7.4934     1.0928     7.3366 </r>
       <r>    -7.3210     1.0937     7.5252 </r>
       <r>    -7.1485     0.6378     7.6352 </r>
       <r>    -6.9761     1.8752     7.9585 </r>
       <r>    -6.8037     1.9859     8.3009 </r>
       <r>    -6.6313     1.6412     8.5839 </r>
       <r>    -6.4588     1.4149     8.8279 </r>
       <r>    -6.2864     1.1043     9.0183 </r>
       <r>    -6.1140     0.8842     9.1708 </r>
       <r>    -5.9415     1.1303     9.3657 </r>
       <r>    -5.7691     1.6734     9.6542 </r>
       <r>    -5.5967     2.3855    10.0656 </r>
       <r>    -5.4242     1.3655    10.3010 </r>
       <r>    -5.2518     0.9889    10.4715 </r>
       <r>    -5.0794     0.9169    10.6296 </r>
       <r>    -4.9069     1.4716    10.8834 </r>
       <r>    -4.7345     0.9854    11.0533 </r>
       <r>    -4.5621     0.8391    11.1980 </r>
       <r>    -4.3896     1.0005    11.3705 </r>
       <r>    -4.2172     0.9448    11.5334 </r>
       <r>    -4.0448     0.8970    11.6881 </r>
       <r>    -3.8723     1.1664    11.8892 </r>
       <r>    -3.6999     0.6420    11.9999 </r>
       <r>    -3.5275     0.0004    12.0000 </r>
       <r>    -3.3551     0.0000    12.0000 </r>
       <r>    -3.1826     0.0000    12.0000 </r>
       <r>    -3.0102     0.0000    12.0000 </r>
       <r>    -2.8378     0.0000    12.0000 </r>
       <r>    -2.6653     0.0000    12.0000 </r>
       <r>    -2.4929     0.0000    12.0000 </r>
       <r>    -2.3205     0.3037    12.0524 </r>
       <r>    -2.1480     0.5029    12.1391 </r>
       <r>    -1.9756     0.4542    12.2174 </r>
       <r>    -1.8032     1.5941    12.4923 </r>
       <r>    -1.6307     1.9476    12.8281 </r>
       <r>    -1.4583     1.7015    13.1215 </r>
       <r>    -1.2859     2.4903    13.5509 </r>
       <r>    -1.1134     2.5207    13.9856 </r>
       <r>    -0.9410     1.9731    14.3258 </r>
       <r>    -0.7686     1.6218    14.6054 </r>
       <r>    -0.5961     1.1983    14.8121 </r>
       <r>    -0.4237     1.0875    14.9996 </r>
       <r>    -0.2513     0.5780    15.0992 </r>
       <r>    -0.0789     0.8662    15.2486 </r>
       <r>     0.0936     0.8775    15.3999 </r>
       <r>     0.2660     1.2168    15.6097 </r>
       <r>     0.4384     0.7489    15.7388 </r>
       <r>     0.6109     0.5987    15.8421 </r>
       <r>     0.7833     0.8572    15.9899 </r>
       <r>     0.9557     0.0587    16.0000 </r>
       <r>     1.1282     0.0000    16.0000 </r>
       <r>     1.3006     0.0000    16.0000 </r>
       <r>     1.4730     0.0941    16.0162 </r>
       <r>     1.6455     0.4834    16.0996 </r>
       <r>     1.8179     0.8532    16.2467 </r>
       <r>     1.9903     0.7199    16.3708 </r>
       <r>     2.1628     0.9996    16.5432 </r>
       <r>     2.3352     2.0558    16.8977 </r>
       <r>     2.5076     1.6091    17.1751 </r>
       <r>     2.6801     1.6073    17.4523 </r>
       <r>     2.8525     1.4620    17.7044 </r>
       <r>     3.0249     1.5681    17.9748 </r>
       <r>     3.1973     1.7807    18.2818 </r>
       <r>     3.3698     1.5950    18.5568 </r>
       <r>     3.5422     1.4754    18.8112 </r>
       <r>     3.7146     1.4553    19.0622 </r>
       <r>     3.8871     1.6818    19.3522 </r>
       <r>     4.0595     1.7346    19.6513 </r>
       <r>     4.2319     1.4794    19.9064 </r>
       <r>     4.4044     1.8567    20.2265 </r>
       <r>     4.5768     1.3221    20.4545 </r>
       <r>     4.7492     1.3060    20.6797 </r>
       <r>     4.9217     1.2011    20.8868 </r>
       <r>     5.0941     1.7492    21.1884 </r>
       <r>     5.2665     1.2078    21.3967 </r>
       <r>     5.4390     1.0539    21.5784 </r>
       <r>     5.6114     1.2418    21.7925 </r>
       <r>     5.7838     1.3589    22.0268 </r>
       <r>     5.9563     1.3214    22.2547 </r>
       <r>     6.1287     0.6647    22.3693 </r>
       <r>     6.3011     1.0524    22.5508 </r>
       <r>     6.4735     1.4821    22.8064 </r>
       <r>     6.6460     1.0355    22.9849 </r>
       <r>     6.8184     1.3343    23.2150 </r>
       <r>     6.9908     1.0636    23.3984 </r>
       <r>     7.1633     0.8609    23.5468 </r>
       <r>     7.3357     0.4777    23.6292 </r>
       <r>     7.5081     0.5047    23.7162 </r>
       <r>     7.6806     0.8292    23.8592 </r>
       <r>     7.8530     0.5183    23.9486 </r>
       <r>     8.0254     0.2981    24.0000 </r>
       <r>     8.1979     0.0001    24.0000 </r>
       <r>     8.3703     0.0000    24.0000 </r>
       <r>     8.5427     0.0000    24.0000 </r>
       <r>     8.7152     0.0000    24.0000 </r>
       <r>     8.8876     0.0000    24.0000 </r>
       <r>     9.0600     0.0000    24.0000 </r>
       <r>     9.2325     0.0000    24.0000 </r>
       <r>     9.4049     0.0000    24.0000 </r>
       <r>     9.5773     0.0000    24.0000 </r>
       <r>     9.7497     0.0000    24.0000 </r>
       <r>     9.9222     0.0000    24.0000 </r>
       <r>    10.0946     0.0000    24.0000 </r>
       <r>    10.2670     0.0000    24.0000 </r>
      </set>
     </set>
    </array>
   </total>
  </dos>
 </calculation>
 <structure name="finalpos" >
  <crystal>
   <varray name="basis" >
    <v>       1.61415312      -2.79579451       0.00000000 </v>
    <v>       1.61415312       2.79579451       0.00000000 </v>
    <v>       0.00000000       0.00000000      34.96267827 </v>
   </varray>
   <i name="volume">    315.56197699 </i>
   <varray name="rec_basis" >
    <v>       0.30975996      -0.17884004       0.00000000 </v>
    <v>       0.30975996       0.17884004       0.00000000 </v>
    <v>       0.00000000       0.00000000       0.02860193 </v>
   </varray>
  </crystal>
  <varray name="positions" >
   <v>       0.66666700       0.33333300       0.10664700 </v>
   <v>       0.33333300       0.66666700       0.06198962 </v>
   <v>       0.33333300       0.66666700       0.15130538 </v>
  </varray>
 </structure>
</modeling>
