<?xml version="1.0" encoding="ISO-8859-1"?>
<modeling>
 <generator>
  <i name="program" type="string">vasp </i>
  <i name="version" type="string">5.4.1  </i>
  <i name="subversion" type="string">05Feb16 (build Feb 01 2017 11:31:40) complex                          parallel </i>
  <i name="platform" type="string">IFC91_ompi </i>
  <i name="date" type="string">2025 11 04 </i>
  <i name="time" type="string">15:30:44 </i>
 </generator>
 <incar>
  <i type="string" name="SYSTEM"> MoSSe-WSSe pre-relaxation (atoms only)</i>
  <i type="string" name="PREC">accurate</i>
  <i type="string" name="ALGO"> Normal</i>
  <i type="logical" name="ADDGRID"> T  </i>
  <i type="int" name="ISPIN">     2</i>
  <i type="int" name="MAXMIX">    40</i>
  <i name="AMIX">      0.20000000</i>
  <i name="BMIX">      0.00010000</i>
  <i name="AMIX_MAG">      0.80000000</i>
  <i name="BMIX_MAG">      0.00010000</i>
  <i type="int" name="NELM">   100</i>
  <i type="int" name="NELMDL">    -5</i>
  <i type="int" name="NELMIN">     4</i>
  <i type="int" name="IBRION">     2</i>
  <i name="EDIFF">      0.00001000</i>
  <i name="EDIFFG">     -0.03000000</i>
  <i type="int" name="NSW">   150</i>
  <i type="int" name="ISIF">     2</i>
  <i name="ENCUT">    520.00000000</i>
  <i name="POTIM">      0.30000000</i>
  <v name="MAGMOM">      2.00000000      2.00000000      2.00000000      2.00000000      2.00000000      2.00000000      2.00000000      2.00000000      2.00000000      2.00000000      2.00000000      2.00000000      2.00000000      2.00000000      2.00000000      2.00000000      2.00000000      2.00000000      2.00000000      2.00000000
      2.00000000      2.00000000      2.00000000      2.00000000      2.00000000      2.00000000      2.00000000      2.00000000      2.00000000      2.00000000      2.00000000      2.00000000      2.00000000      2.00000000      2.00000000      2.00000000      2.00000000      2.00000000      2.00000000      2.00000000
      2.00000000      2.00000000      2.00000000      2.00000000      2.00000000      2.00000000      2.00000000      2.00000000      2.00000000      2.00000000      0.00000000      0.00000000      0.00000000      0.00000000      0.00000000      0.00000000      0.00000000      0.00000000      0.00000000      0.00000000
      0.00000000      0.00000000      0.00000000      0.00000000      0.00000000      0.00000000      0.00000000      0.00000000      0.00000000      0.00000000      0.00000000      0.00000000      0.00000000      0.00000000      0.00000000      0.00000000      0.00000000      0.00000000      0.00000000      0.00000000
      0.00000000      0.00000000      0.00000000      0.00000000      0.00000000      0.00000000      0.00000000      0.00000000      0.00000000      0.00000000      0.00000000      0.00000000      0.00000000      0.00000000      0.00000000      0.00000000      0.00000000      0.00000000      0.00000000      0.00000000
      0.00000000      0.00000000      0.00000000      0.00000000      0.00000000      0.00000000      0.00000000      0.00000000      0.00000000      0.00000000      0.00000000      0.00000000      0.00000000      0.00000000      0.00000000      0.00000000      0.00000000      0.00000000      0.00000000      0.00000000
      0.00000000      0.00000000      0.00000000      0.00000000      0.00000000      0.00000000      0.00000000      0.00000000      0.00000000      0.00000000      0.00000000      0.00000000      0.00000000      0.00000000      0.00000000      0.00000000      0.00000000      0.00000000      0.00000000      0.00000000
      0.00000000      0.00000000      0.00000000      0.00000000      0.00000000      0.00000000      0.00000000      0.00000000      0.00000000      0.00000000</v>
  <i type="logical" name="LREAL"> F  </i>
  <i type="int" name="ISMEAR">     0</i>
  <i name="SIGMA">      0.05000000</i>
  <i name="PSTRESS">      0.00000000</i>
  <i type="int" name="LMAXMIX">     4</i>
  <i type="logical" name="LASPH"> T  </i>
  <v type="int" name="KPOINT_BSE">    -1     0     0     0</v>
  <i type="int" name="NELM">   100</i>
  <i type="logical" name="LASPH"> T  </i>
 </incar>
 <kpoints>
  <generation param="Gamma">
   <v type="int" name="divisions">       3        3        1 </v>
   <v name="usershift">      0.00000000       0.00000000       0.00000000 </v>
   <v name="genvec1">      0.33333333       0.00000000       0.00000000 </v>
   <v name="genvec2">      0.00000000       0.33333333       0.00000000 </v>
   <v name="genvec3">      0.00000000       0.00000000       1.00000000 </v>
   <v name="shift">      0.00000000       0.00000000       0.00000000 </v>
  </generation>
  <varray name="kpointlist" >
   <v>       0.00000000       0.00000000       0.00000000 </v>
   <v>       0.33333333      -0.00000000       0.00000000 </v>
   <v>       0.33333333       0.33333333       0.00000000 </v>
  </varray>
  <varray name="weights" >
   <v>       0.11111111 </v>
   <v>       0.66666667 </v>
   <v>       0.22222222 </v>
  </varray>
 </kpoints>
 <parameters>
  <separator name="general" >
   <i type="string" name="SYSTEM">MoSSe-WSSe pre-relaxation (atoms only)</i>
   <i type="logical" name="LCOMPAT"> F  </i>
  </separator>
  <separator name="electronic" >
   <i type="string" name="PREC">accura</i>
   <i name="ENMAX">    520.00000000</i>
   <i name="ENAUG">    446.84200000</i>
   <i name="EDIFF">      0.00001000</i>
   <i type="int" name="IALGO">    38</i>
   <i type="int" name="IWAVPR">    11</i>
   <i type="int" name="NBANDS">   816</i>
   <i name="NELECT">   1200.00000000</i>
   <i type="int" name="TURBO">     0</i>
   <i type="int" name="IRESTART">     0</i>
   <i type="int" name="NREBOOT">     0</i>
   <i type="int" name="NMIN">     0</i>
   <i name="EREF">      0.00000000</i>
   <separator name="electronic smearing" >
    <i type="int" name="ISMEAR">     0</i>
    <i name="SIGMA">      0.05000000</i>
    <i name="KSPACING">      0.50000000</i>
    <i type="logical" name="KGAMMA"> T  </i>
   </separator>
   <separator name="electronic projectors" >
    <i type="logical" name="LREAL"> F  </i>
    <v name="ROPT">      0.00000000      0.00000000      0.00000000      0.00000000</v>
    <i type="int" name="LMAXPAW">  -100</i>
    <i type="int" name="LMAXMIX">     4</i>
    <i type="logical" name="NLSPLINE"> F  </i>
   </separator>
   <separator name="electronic startup" >
    <i type="int" name="ISTART">     0</i>
    <i type="int" name="ICHARG">     2</i>
    <i type="int" name="INIWAV">     1</i>
   </separator>
   <separator name="electronic spin" >
    <i type="int" name="ISPIN">     2</i>
    <i type="logical" name="LNONCOLLINEAR"> F  </i>
    <v name="MAGMOM">      2.00000000      2.00000000      2.00000000      2.00000000      2.00000000      2.00000000      2.00000000      2.00000000      2.00000000      2.00000000      2.00000000      2.00000000      2.00000000      2.00000000      2.00000000      2.00000000      2.00000000      2.00000000      2.00000000      2.00000000
      2.00000000      2.00000000      2.00000000      2.00000000      2.00000000      2.00000000      2.00000000      2.00000000      2.00000000      2.00000000      2.00000000      2.00000000      2.00000000      2.00000000      2.00000000      2.00000000      2.00000000      2.00000000      2.00000000      2.00000000
      2.00000000      2.00000000      2.00000000      2.00000000      2.00000000      2.00000000      2.00000000      2.00000000      2.00000000      2.00000000      0.00000000      0.00000000      0.00000000      0.00000000      0.00000000      0.00000000      0.00000000      0.00000000      0.00000000      0.00000000
      0.00000000      0.00000000      0.00000000      0.00000000      0.00000000      0.00000000      0.00000000      0.00000000      0.00000000      0.00000000      0.00000000      0.00000000      0.00000000      0.00000000      0.00000000      0.00000000      0.00000000      0.00000000      0.00000000      0.00000000
      0.00000000      0.00000000      0.00000000      0.00000000      0.00000000      0.00000000      0.00000000      0.00000000      0.00000000      0.00000000      0.00000000      0.00000000      0.00000000      0.00000000      0.00000000      0.00000000      0.00000000      0.00000000      0.00000000      0.00000000
      0.00000000      0.00000000      0.00000000      0.00000000      0.00000000      0.00000000      0.00000000      0.00000000      0.00000000      0.00000000      0.00000000      0.00000000      0.00000000      0.00000000      0.00000000      0.00000000      0.00000000      0.00000000      0.00000000      0.00000000
      0.00000000      0.00000000      0.00000000      0.00000000      0.00000000      0.00000000      0.00000000      0.00000000      0.00000000      0.00000000      0.00000000      0.00000000      0.00000000      0.00000000      0.00000000      0.00000000      0.00000000      0.00000000      0.00000000      0.00000000
      0.00000000      0.00000000      0.00000000      0.00000000      0.00000000      0.00000000      0.00000000      0.00000000      0.00000000      0.00000000</v>
    <i name="NUPDOWN">     -1.00000000</i>
    <i type="logical" name="LSORBIT"> F  </i>
    <v name="SAXIS">      0.00000000      0.00000000      1.00000000</v>
    <i type="logical" name="LSPIRAL"> F  </i>
    <v name="QSPIRAL">      0.00000000      0.00000000      0.00000000</v>
    <i type="logical" name="LZEROZ"> F  </i>
   </separator>
   <separator name="electronic exchange-correlation" >
    <i type="logical" name="LASPH"> T  </i>
    <i type="logical" name="LMETAGGA"> F  </i>
   </separator>
   <separator name="electronic convergence" >
    <i type="int" name="NELM">   100</i>
    <i type="int" name="NELMDL">    -5</i>
    <i type="int" name="NELMIN">     4</i>
    <i name="ENINI">    520.00000000</i>
    <separator name="electronic convergence detail" >
     <i type="logical" name="LDIAG"> T  </i>
     <i type="logical" name="LSUBROT"> F  </i>
     <i name="WEIMIN">      0.00100000</i>
     <i name="EBREAK">      0.00000000</i>
     <i name="DEPER">      0.30000000</i>
     <i type="int" name="NRMM">     4</i>
     <i name="TIME">      0.40000000</i>
    </separator>
   </separator>
   <separator name="electronic mixer" >
    <i name="AMIX">      0.20000000</i>
    <i name="BMIX">      0.00010000</i>
    <i name="AMIN">      0.10000000</i>
    <i name="AMIX_MAG">      0.80000000</i>
    <i name="BMIX_MAG">      0.00010000</i>
    <separator name="electronic mixer details" >
     <i type="int" name="IMIX">     4</i>
     <i type="logical" name="MIXFIRST"> F  </i>
     <i type="int" name="MAXMIX">    40</i>
     <i name="WC">    100.00000000</i>
     <i type="int" name="INIMIX">     1</i>
     <i type="int" name="MIXPRE">     1</i>
     <i type="int" name="MREMOVE">     5</i>
    </separator>
   </separator>
   <separator name="electronic dipolcorrection" >
    <i type="logical" name="LDIPOL"> F  </i>
    <i type="logical" name="LMONO"> F  </i>
    <i type="int" name="IDIPOL">     0</i>
    <i name="EPSILON">      1.00000000</i>
    <v name="DIPOL">   -100.00000000   -100.00000000   -100.00000000</v>
    <i name="EFIELD">      0.00000000</i>
   </separator>
  </separator>
  <separator name="grids" >
   <i type="int" name="NGX">   120</i>
   <i type="int" name="NGY">   120</i>
   <i type="int" name="NGZ">   210</i>
   <i type="int" name="NGXF">   240</i>
   <i type="int" name="NGYF">   240</i>
   <i type="int" name="NGZF">   420</i>
   <i type="logical" name="ADDGRID"> T  </i>
  </separator>
  <separator name="ionic" >
   <i type="int" name="NSW">   150</i>
   <i type="int" name="IBRION">     2</i>
   <i type="int" name="ISIF">     2</i>
   <i name="PSTRESS">      0.00000000</i>
   <i name="EDIFFG">     -0.03000000</i>
   <i type="int" name="NFREE">     1</i>
   <i name="POTIM">      0.30000000</i>
   <i name="SMASS">     -3.00000000</i>
   <i name="SCALEE">      1.00000000</i>
  </separator>
  <separator name="ionic md" >
   <i name="TEBEG">      0.00010000</i>
   <i name="TEEND">      0.00010000</i>
   <i type="int" name="NBLOCK">     1</i>
   <i type="int" name="KBLOCK">   150</i>
   <i type="int" name="NPACO">   256</i>
   <i name="APACO">     16.00000000</i>
  </separator>
  <separator name="symmetry" >
   <i type="int" name="ISYM">     2</i>
   <i name="SYMPREC">      0.00001000</i>
  </separator>
  <separator name="dos" >
   <i type="logical" name="LORBIT"> F  </i>
   <v name="RWIGS">     -1.00000000     -1.00000000     -1.00000000     -1.00000000</v>
   <i type="int" name="NEDOS">   301</i>
   <i name="EMIN">     10.00000000</i>
   <i name="EMAX">    -10.00000000</i>
   <i name="EFERMI">      0.00000000</i>
  </separator>
  <separator name="writing" >
   <i type="int" name="NWRITE">     2</i>
   <i type="logical" name="LWAVE"> T  </i>
   <i type="logical" name="LCHARG"> T  </i>
   <i type="logical" name="LPARD"> F  </i>
   <i type="logical" name="LVTOT"> F  </i>
   <i type="logical" name="LVHAR"> F  </i>
   <i type="logical" name="LELF"> F  </i>
   <i type="logical" name="LOPTICS"> F  </i>
   <v name="STM">      0.00000000      0.00000000      0.00000000      0.00000000      0.00000000      0.00000000      0.00000000</v>
  </separator>
  <separator name="performance" >
   <i type="int" name="NPAR">    48</i>
   <i type="int" name="NSIM">     4</i>
   <i type="int" name="NBLK">    -1</i>
   <i type="logical" name="LPLANE"> T  </i>
   <i type="logical" name="LSCALAPACK"> T  </i>
   <i type="logical" name="LSCAAWARE"> F  </i>
   <i type="logical" name="LSCALU"> F  </i>
   <i type="logical" name="LASYNC"> F  </i>
   <i type="logical" name="LORBITALREAL"> F  </i>
  </separator>
  <separator name="miscellaneous" >
   <i type="int" name="IDIOT">     3</i>
   <i type="logical" name="LMUSIC"> F  </i>
   <v name="POMASS">     95.94000000    183.85000000     32.06600000     78.96000000</v>
   <v name="DARWINR">      0.00000000      0.00000000      0.00000000      0.00000000</v>
   <v name="DARWINV">      1.00000000      1.00000000      1.00000000      1.00000000</v>
   <i type="logical" name="LCORR"> T  </i>
  </separator>
  <i type="logical" name="GGA_COMPAT"> T  </i>
  <i type="logical" name="LBERRY"> F  </i>
  <i type="int" name="ICORELEVEL">     0</i>
  <i type="logical" name="LDAU"> F  </i>
  <i type="int" name="I_CONSTRAINED_M">     0</i>
  <separator name="electronic exchange-correlation" >
   <i type="string" name="GGA">--</i>
   <i type="int" name="VOSKOWN">     0</i>
   <i type="logical" name="LHFCALC"> F  </i>
   <i type="string" name="PRECFOCK"></i>
   <i type="logical" name="LSYMGRAD"> F  </i>
   <i type="logical" name="LHFONE"> F  </i>
   <i type="logical" name="LRHFCALC"> F  </i>
   <i type="logical" name="LTHOMAS"> F  </i>
   <i type="logical" name="LMODELHF"> F  </i>
   <i name="ENCUT4O">     -1.00000000</i>
   <i type="int" name="EXXOEP">     0</i>
   <i type="int" name="FOURORBIT">     0</i>
   <i name="AEXX">      0.00000000</i>
   <i name="HFALPHA">      0.00000000</i>
   <i name="MCALPHA">      0.00000000</i>
   <i name="ALDAX">      1.00000000</i>
   <i name="AGGAX">      1.00000000</i>
   <i name="ALDAC">      1.00000000</i>
   <i name="AGGAC">      1.00000000</i>
   <i type="int" name="NKREDX">     1</i>
   <i type="int" name="NKREDY">     1</i>
   <i type="int" name="NKREDZ">     1</i>
   <i type="logical" name="SHIFTRED"> F  </i>
   <i type="logical" name="ODDONLY"> F  </i>
   <i type="logical" name="EVENONLY"> F  </i>
   <i type="int" name="LMAXFOCK">     0</i>
   <i type="int" name="NMAXFOCKAE">     0</i>
   <i type="logical" name="LFOCKAEDFT"> F  </i>
   <i name="HFSCREEN">      0.00000000</i>
   <i name="HFSCREENC">      0.00000000</i>
   <i type="int" name="NBANDSGWLOW">     0</i>
  </separator>
  <separator name="vdW DFT" >
   <i type="logical" name="LUSE_VDW"> F  </i>
   <i name="Zab_VDW">     -0.84910000</i>
   <i name="PARAM1">      0.12340000</i>
   <i name="PARAM2">      1.00000000</i>
   <i name="PARAM3">      0.00000000</i>
  </separator>
  <separator name="model GW" >
   <i type="int" name="MODEL_GW">     0</i>
   <i name="MODEL_EPS0">     24.90084089</i>
   <i name="MODEL_ALPHA">      1.00000000</i>
  </separator>
  <separator name="linear response parameters" >
   <i type="logical" name="LEPSILON"> F  </i>
   <i type="logical" name="LRPA"> F  </i>
   <i type="logical" name="LNABLA"> F  </i>
   <i type="logical" name="LVEL"> F  </i>
   <i type="int" name="KINTER">     0</i>
   <i name="CSHIFT">      0.10000000</i>
   <i name="OMEGAMAX">     -1.00000000</i>
   <i name="DEG_THRESHOLD">      0.00200000</i>
  </separator>
  <separator name="orbital magnetization" >
   <i type="logical" name="NUCIND"> F  </i>
   <v name="MAGPOS">      0.00000000      0.00000000      0.00000000</v>
   <i type="logical" name="LNICSALL"> T  </i>
   <i type="logical" name="ORBITALMAG"> F  </i>
   <i type="logical" name="LMAGBLOCH"> F  </i>
   <i type="logical" name="LCHIMAG"> F  </i>
   <i type="logical" name="LGAUGE"> T  </i>
   <i type="int" name="MAGATOM">     0</i>
   <v name="MAGDIPOL">      0.00000000      0.00000000      0.00000000</v>
   <v name="AVECCONST">      0.00000000      0.00000000      0.00000000</v>
  </separator>
  <separator name="response functions" >
   <i type="logical" name="LADDER"> F  </i>
   <i type="logical" name="LFXC"> F  </i>
   <i type="logical" name="LHARTREE"> T  </i>
   <i type="int" name="IBSE">     0</i>
   <v type="int" name="KPOINT">    -1     0     0     0</v>
   <i type="logical" name="LTCTE"> F  </i>
   <i type="logical" name="LTETE"> F  </i>
   <i type="logical" name="LTRIPLET"> F  </i>
   <i type="logical" name="LFXCEPS"> F  </i>
   <i type="logical" name="LFXHEG"> F  </i>
   <i type="int" name="NATURALO">     0</i>
   <i type="logical" name="L2ORDER"> F  </i>
   <i type="logical" name="LUSEW"> F  </i>
   <i name="ENCUTGW">     -2.00000000</i>
   <i name="ENCUTGWSOFT">     -2.00000000</i>
   <i name="ENCUTLF">     -1.00000000</i>
   <i type="int" name="LMAXMP2">    -1</i>
   <i name="SCISSOR">      0.00000000</i>
   <i type="int" name="NOMEGA">     0</i>
   <i type="int" name="NOMEGAR">     0</i>
   <i type="int" name="NBANDSGW">    -1</i>
   <i type="int" name="NBANDSO">    -1</i>
   <i type="int" name="NBANDSV">    -1</i>
   <i type="int" name="NELM">   100</i>
   <i type="int" name="NELMHF">     1</i>
   <i type="int" name="DIM">     3</i>
   <i type="int" name="ANTIRES">     0</i>
   <i name="OMEGAMAX">    -30.00000000</i>
   <i name="OMEGAMIN">    -30.00000000</i>
   <i name="OMEGATL">   -200.00000000</i>
   <i type="int" name="OMEGAGRID">     0</i>
   <i name="CSHIFT">     -0.10000000</i>
   <i type="logical" name="SELFENERGY"> F  </i>
   <i type="logical" name="LSPECTRAL"> F  </i>
   <i type="logical" name="LSPECTRALGW"> F  </i>
   <i type="logical" name="LSINGLES"> F  </i>
   <i type="logical" name="LFERMIGW"> F  </i>
   <i type="logical" name="ODDONLYGW"> F  </i>
   <i type="logical" name="EVENONLYGW"> F  </i>
   <i type="int" name="NKREDLFX">     1</i>
   <i type="int" name="NKREDLFY">     1</i>
   <i type="int" name="NKREDLFZ">     1</i>
   <i type="int" name="MAXMEM">  1800</i>
   <i type="int" name="TELESCOPE">     0</i>
   <i type="int" name="TAUPAR">     1</i>
   <i type="int" name="OMEGAPAR">    -1</i>
   <i name="LAMBDA">      1.00000000</i>
  </separator>
  <separator name="External order field" >
   <i name="OFIELD_KAPPA">      0.00000000</i>
   <v name="OFIELD_K">      0.00000000      0.00000000      0.00000000</v>
   <i name="OFIELD_Q6_NEAR">      0.00000000</i>
   <i name="OFIELD_Q6_FAR">      0.00000000</i>
   <i name="OFIELD_A">      0.00000000</i>
  </separator>
  <separator name="solvation model" >
   <i type="logical" name="LSOL"> F  </i>
  </separator>
 </parameters>
 <atominfo>
  <atoms>     150 </atoms>
  <types>       4 </types>
  <array name="atoms" >
   <dimension dim="1">ion</dimension>
   <field type="string">element</field>
   <field type="int">atomtype</field>
   <set>
    <rc><c>Mo</c><c>   1</c></rc>
    <rc><c>Mo</c><c>   1</c></rc>
    <rc><c>Mo</c><c>   1</c></rc>
    <rc><c>Mo</c><c>   1</c></rc>
    <rc><c>Mo</c><c>   1</c></rc>
    <rc><c>Mo</c><c>   1</c></rc>
    <rc><c>Mo</c><c>   1</c></rc>
    <rc><c>Mo</c><c>   1</c></rc>
    <rc><c>Mo</c><c>   1</c></rc>
    <rc><c>Mo</c><c>   1</c></rc>
    <rc><c>Mo</c><c>   1</c></rc>
    <rc><c>Mo</c><c>   1</c></rc>
    <rc><c>Mo</c><c>   1</c></rc>
    <rc><c>Mo</c><c>   1</c></rc>
    <rc><c>Mo</c><c>   1</c></rc>
    <rc><c>Mo</c><c>   1</c></rc>
    <rc><c>Mo</c><c>   1</c></rc>
    <rc><c>Mo</c><c>   1</c></rc>
    <rc><c>Mo</c><c>   1</c></rc>
    <rc><c>Mo</c><c>   1</c></rc>
    <rc><c>Mo</c><c>   1</c></rc>
    <rc><c>Mo</c><c>   1</c></rc>
    <rc><c>Mo</c><c>   1</c></rc>
    <rc><c>Mo</c><c>   1</c></rc>
    <rc><c>Mo</c><c>   1</c></rc>
    <rc><c>W </c><c>   2</c></rc>
    <rc><c>W </c><c>   2</c></rc>
    <rc><c>W </c><c>   2</c></rc>
    <rc><c>W </c><c>   2</c></rc>
    <rc><c>W </c><c>   2</c></rc>
    <rc><c>W </c><c>   2</c></rc>
    <rc><c>W </c><c>   2</c></rc>
    <rc><c>W </c><c>   2</c></rc>
    <rc><c>W </c><c>   2</c></rc>
    <rc><c>W </c><c>   2</c></rc>
    <rc><c>W </c><c>   2</c></rc>
    <rc><c>W </c><c>   2</c></rc>
    <rc><c>W </c><c>   2</c></rc>
    <rc><c>W </c><c>   2</c></rc>
    <rc><c>W </c><c>   2</c></rc>
    <rc><c>W </c><c>   2</c></rc>
    <rc><c>W </c><c>   2</c></rc>
    <rc><c>W </c><c>   2</c></rc>
    <rc><c>W </c><c>   2</c></rc>
    <rc><c>W </c><c>   2</c></rc>
    <rc><c>W </c><c>   2</c></rc>
    <rc><c>W </c><c>   2</c></rc>
    <rc><c>W </c><c>   2</c></rc>
    <rc><c>W </c><c>   2</c></rc>
    <rc><c>W </c><c>   2</c></rc>
    <rc><c>S </c><c>   3</c></rc>
    <rc><c>S </c><c>   3</c></rc>
    <rc><c>S </c><c>   3</c></rc>
    <rc><c>S </c><c>   3</c></rc>
    <rc><c>S </c><c>   3</c></rc>
    <rc><c>S </c><c>   3</c></rc>
    <rc><c>S </c><c>   3</c></rc>
    <rc><c>S </c><c>   3</c></rc>
    <rc><c>S </c><c>   3</c></rc>
    <rc><c>S </c><c>   3</c></rc>
    <rc><c>S </c><c>   3</c></rc>
    <rc><c>S </c><c>   3</c></rc>
    <rc><c>S </c><c>   3</c></rc>
    <rc><c>S </c><c>   3</c></rc>
    <rc><c>S </c><c>   3</c></rc>
    <rc><c>S </c><c>   3</c></rc>
    <rc><c>S </c><c>   3</c></rc>
    <rc><c>S </c><c>   3</c></rc>
    <rc><c>S </c><c>   3</c></rc>
    <rc><c>S </c><c>   3</c></rc>
    <rc><c>S </c><c>   3</c></rc>
    <rc><c>S </c><c>   3</c></rc>
    <rc><c>S </c><c>   3</c></rc>
    <rc><c>S </c><c>   3</c></rc>
    <rc><c>S </c><c>   3</c></rc>
    <rc><c>S </c><c>   3</c></rc>
    <rc><c>S </c><c>   3</c></rc>
    <rc><c>S </c><c>   3</c></rc>
    <rc><c>S </c><c>   3</c></rc>
    <rc><c>S </c><c>   3</c></rc>
    <rc><c>S </c><c>   3</c></rc>
    <rc><c>S </c><c>   3</c></rc>
    <rc><c>S </c><c>   3</c></rc>
    <rc><c>S </c><c>   3</c></rc>
    <rc><c>S </c><c>   3</c></rc>
    <rc><c>S </c><c>   3</c></rc>
    <rc><c>S </c><c>   3</c></rc>
    <rc><c>S </c><c>   3</c></rc>
    <rc><c>S </c><c>   3</c></rc>
    <rc><c>S </c><c>   3</c></rc>
    <rc><c>S </c><c>   3</c></rc>
    <rc><c>S </c><c>   3</c></rc>
    <rc><c>S </c><c>   3</c></rc>
    <rc><c>S </c><c>   3</c></rc>
    <rc><c>S </c><c>   3</c></rc>
    <rc><c>S </c><c>   3</c></rc>
    <rc><c>S </c><c>   3</c></rc>
    <rc><c>S </c><c>   3</c></rc>
    <rc><c>S </c><c>   3</c></rc>
    <rc><c>S </c><c>   3</c></rc>
    <rc><c>Se</c><c>   4</c></rc>
    <rc><c>Se</c><c>   4</c></rc>
    <rc><c>Se</c><c>   4</c></rc>
    <rc><c>Se</c><c>   4</c></rc>
    <rc><c>Se</c><c>   4</c></rc>
    <rc><c>Se</c><c>   4</c></rc>
    <rc><c>Se</c><c>   4</c></rc>
    <rc><c>Se</c><c>   4</c></rc>
    <rc><c>Se</c><c>   4</c></rc>
    <rc><c>Se</c><c>   4</c></rc>
    <rc><c>Se</c><c>   4</c></rc>
    <rc><c>Se</c><c>   4</c></rc>
    <rc><c>Se</c><c>   4</c></rc>
    <rc><c>Se</c><c>   4</c></rc>
    <rc><c>Se</c><c>   4</c></rc>
    <rc><c>Se</c><c>   4</c></rc>
    <rc><c>Se</c><c>   4</c></rc>
    <rc><c>Se</c><c>   4</c></rc>
    <rc><c>Se</c><c>   4</c></rc>
    <rc><c>Se</c><c>   4</c></rc>
    <rc><c>Se</c><c>   4</c></rc>
    <rc><c>Se</c><c>   4</c></rc>
    <rc><c>Se</c><c>   4</c></rc>
    <rc><c>Se</c><c>   4</c></rc>
    <rc><c>Se</c><c>   4</c></rc>
    <rc><c>Se</c><c>   4</c></rc>
    <rc><c>Se</c><c>   4</c></rc>
    <rc><c>Se</c><c>   4</c></rc>
    <rc><c>Se</c><c>   4</c></rc>
    <rc><c>Se</c><c>   4</c></rc>
    <rc><c>Se</c><c>   4</c></rc>
    <rc><c>Se</c><c>   4</c></rc>
    <rc><c>Se</c><c>   4</c></rc>
    <rc><c>Se</c><c>   4</c></rc>
    <rc><c>Se</c><c>   4</c></rc>
    <rc><c>Se</c><c>   4</c></rc>
    <rc><c>Se</c><c>   4</c></rc>
    <rc><c>Se</c><c>   4</c></rc>
    <rc><c>Se</c><c>   4</c></rc>
    <rc><c>Se</c><c>   4</c></rc>
    <rc><c>Se</c><c>   4</c></rc>
    <rc><c>Se</c><c>   4</c></rc>
    <rc><c>Se</c><c>   4</c></rc>
    <rc><c>Se</c><c>   4</c></rc>
    <rc><c>Se</c><c>   4</c></rc>
    <rc><c>Se</c><c>   4</c></rc>
    <rc><c>Se</c><c>   4</c></rc>
    <rc><c>Se</c><c>   4</c></rc>
    <rc><c>Se</c><c>   4</c></rc>
    <rc><c>Se</c><c>   4</c></rc>
   </set>
  </array>
  <array name="atomtypes" >
   <dimension dim="1">type</dimension>
   <field type="int">atomspertype</field>
   <field type="string">element</field>
   <field>mass</field>
   <field>valence</field>
   <field type="string">pseudopotential</field>
   <set>
    <rc><c>  25</c><c>Mo</c><c>     95.94000000</c><c>     12.00000000</c><c> PAW_PBE Mo_pv 08Apr2002                </c></rc>
    <rc><c>  25</c><c>W </c><c>    183.85000000</c><c>     12.00000000</c><c> PAW_PBE W_pv 06Sep2000                 </c></rc>
    <rc><c>  50</c><c>S </c><c>     32.06600000</c><c>      6.00000000</c><c>  PAW_PBE S 17Jan2003                   </c></rc>
    <rc><c>  50</c><c>Se</c><c>     78.96000000</c><c>      6.00000000</c><c> PAW_PBE Se 06Sep2000                   </c></rc>
   </set>
  </array>
 </atominfo>
 <structure name="initialpos" >
  <crystal>
   <varray name="basis" >
    <v>      15.95157981       0.00000000       0.00000000 </v>
    <v>      -7.97578990      13.81447335       0.00000000 </v>
    <v>       0.00000000       0.00000000      28.24983972 </v>
   </varray>
   <i name="volume">   6225.21022374 </i>
   <varray name="rec_basis" >
    <v>       0.06268972       0.03619392       0.00000000 </v>
    <v>       0.00000000       0.07238785       0.00000000 </v>
    <v>       0.00000000       0.00000000       0.03539843 </v>
   </varray>
  </crystal>
  <varray name="positions" >
   <v>       0.13333340       0.06666660       0.05539445 </v>
   <v>       0.13333340       0.26666660       0.05539445 </v>
   <v>       0.13333340       0.46666660       0.05539445 </v>
   <v>       0.13333340       0.66666660       0.05539445 </v>
   <v>       0.13333340       0.86666660       0.05539445 </v>
   <v>       0.33333340       0.06666660       0.05539445 </v>
   <v>       0.33333340       0.26666660       0.05539445 </v>
   <v>       0.33333340       0.46666660       0.05539445 </v>
   <v>       0.33333340       0.66666660       0.05539445 </v>
   <v>       0.33333340       0.86666660       0.05539445 </v>
   <v>       0.53333340       0.06666660       0.05539445 </v>
   <v>       0.53333340       0.26666660       0.05539445 </v>
   <v>       0.53333340       0.46666660       0.05539445 </v>
   <v>       0.53333340       0.66666660       0.05539445 </v>
   <v>       0.53333340       0.86666660       0.05539445 </v>
   <v>       0.73333340       0.06666660       0.05539445 </v>
   <v>       0.73333340       0.26666660       0.05539445 </v>
   <v>       0.73333340       0.46666660       0.05539445 </v>
   <v>       0.73333340       0.66666660       0.05539445 </v>
   <v>       0.73333340       0.86666660       0.05539445 </v>
   <v>       0.93333340       0.06666660       0.05539445 </v>
   <v>       0.93333340       0.26666660       0.05539445 </v>
   <v>       0.93333340       0.46666660       0.05539445 </v>
   <v>       0.93333340       0.66666660       0.05539445 </v>
   <v>       0.93333340       0.86666660       0.05539445 </v>
   <v>       0.06666660       0.13333340       0.41026088 </v>
   <v>       0.06666660       0.33333340       0.41026088 </v>
   <v>       0.06666660       0.53333340       0.41026088 </v>
   <v>       0.06666660       0.73333340       0.41026088 </v>
   <v>       0.06666660       0.93333340       0.41026088 </v>
   <v>       0.26666660       0.13333340       0.41026088 </v>
   <v>       0.26666660       0.33333340       0.41026088 </v>
   <v>       0.26666660       0.53333340       0.41026088 </v>
   <v>       0.26666660       0.73333340       0.41026088 </v>
   <v>       0.26666660       0.93333340       0.41026088 </v>
   <v>       0.46666660       0.13333340       0.41026088 </v>
   <v>       0.46666660       0.33333340       0.41026088 </v>
   <v>       0.46666660       0.53333340       0.41026088 </v>
   <v>       0.46666660       0.73333340       0.41026088 </v>
   <v>       0.46666660       0.93333340       0.41026088 </v>
   <v>       0.66666660       0.13333340       0.41026088 </v>
   <v>       0.66666660       0.33333340       0.41026088 </v>
   <v>       0.66666660       0.53333340       0.41026088 </v>
   <v>       0.66666660       0.73333340       0.41026088 </v>
   <v>       0.66666660       0.93333340       0.41026088 </v>
   <v>       0.86666660       0.13333340       0.41026088 </v>
   <v>       0.86666660       0.33333340       0.41026088 </v>
   <v>       0.86666660       0.53333340       0.41026088 </v>
   <v>       0.86666660       0.73333340       0.41026088 </v>
   <v>       0.86666660       0.93333340       0.41026088 </v>
   <v>       0.06666660       0.13333340       0.00000000 </v>
   <v>       0.06666660       0.33333340       0.00000000 </v>
   <v>       0.06666660       0.53333340       0.00000000 </v>
   <v>       0.06666660       0.73333340       0.00000000 </v>
   <v>       0.06666660       0.93333340       0.00000000 </v>
   <v>       0.26666660       0.13333340       0.00000000 </v>
   <v>       0.26666660       0.33333340       0.00000000 </v>
   <v>       0.26666660       0.53333340       0.00000000 </v>
   <v>       0.26666660       0.73333340       0.00000000 </v>
   <v>       0.26666660       0.93333340       0.00000000 </v>
   <v>       0.46666660       0.13333340       0.00000000 </v>
   <v>       0.46666660       0.33333340       0.00000000 </v>
   <v>       0.46666660       0.53333340       0.00000000 </v>
   <v>       0.46666660       0.73333340       0.00000000 </v>
   <v>       0.46666660       0.93333340       0.00000000 </v>
   <v>       0.66666660       0.13333340       0.00000000 </v>
   <v>       0.66666660       0.33333340       0.00000000 </v>
   <v>       0.66666660       0.53333340       0.00000000 </v>
   <v>       0.66666660       0.73333340       0.00000000 </v>
   <v>       0.66666660       0.93333340       0.00000000 </v>
   <v>       0.86666660       0.13333340       0.00000000 </v>
   <v>       0.86666660       0.33333340       0.00000000 </v>
   <v>       0.86666660       0.53333340       0.00000000 </v>
   <v>       0.86666660       0.73333340       0.00000000 </v>
   <v>       0.86666660       0.93333340       0.00000000 </v>
   <v>       0.13333340       0.06666660       0.46902354 </v>
   <v>       0.13333340       0.26666660       0.46902354 </v>
   <v>       0.13333340       0.46666660       0.46902354 </v>
   <v>       0.13333340       0.66666660       0.46902354 </v>
   <v>       0.13333340       0.86666660       0.46902354 </v>
   <v>       0.33333340       0.06666660       0.46902354 </v>
   <v>       0.33333340       0.26666660       0.46902354 </v>
   <v>       0.33333340       0.46666660       0.46902354 </v>
   <v>       0.33333340       0.66666660       0.46902354 </v>
   <v>       0.33333340       0.86666660       0.46902354 </v>
   <v>       0.53333340       0.06666660       0.46902354 </v>
   <v>       0.53333340       0.26666660       0.46902354 </v>
   <v>       0.53333340       0.46666660       0.46902354 </v>
   <v>       0.53333340       0.66666660       0.46902354 </v>
   <v>       0.53333340       0.86666660       0.46902354 </v>
   <v>       0.73333340       0.06666660       0.46902354 </v>
   <v>       0.73333340       0.26666660       0.46902354 </v>
   <v>       0.73333340       0.46666660       0.46902354 </v>
   <v>       0.73333340       0.66666660       0.46902354 </v>
   <v>       0.73333340       0.86666660       0.46902354 </v>
   <v>       0.93333340       0.06666660       0.46902354 </v>
   <v>       0.93333340       0.26666660       0.46902354 </v>
   <v>       0.93333340       0.46666660       0.46902354 </v>
   <v>       0.93333340       0.66666660       0.46902354 </v>
   <v>       0.93333340       0.86666660       0.46902354 </v>
   <v>       0.06666660       0.13333340       0.11078890 </v>
   <v>       0.06666660       0.33333340       0.11078890 </v>
   <v>       0.06666660       0.53333340       0.11078890 </v>
   <v>       0.06666660       0.73333340       0.11078890 </v>
   <v>       0.06666660       0.93333340       0.11078890 </v>
   <v>       0.26666660       0.13333340       0.11078890 </v>
   <v>       0.26666660       0.33333340       0.11078890 </v>
   <v>       0.26666660       0.53333340       0.11078890 </v>
   <v>       0.26666660       0.73333340       0.11078890 </v>
   <v>       0.26666660       0.93333340       0.11078890 </v>
   <v>       0.46666660       0.13333340       0.11078890 </v>
   <v>       0.46666660       0.33333340       0.11078890 </v>
   <v>       0.46666660       0.53333340       0.11078890 </v>
   <v>       0.46666660       0.73333340       0.11078890 </v>
   <v>       0.46666660       0.93333340       0.11078890 </v>
   <v>       0.66666660       0.13333340       0.11078890 </v>
   <v>       0.66666660       0.33333340       0.11078890 </v>
   <v>       0.66666660       0.53333340       0.11078890 </v>
   <v>       0.66666660       0.73333340       0.11078890 </v>
   <v>       0.66666660       0.93333340       0.11078890 </v>
   <v>       0.86666660       0.13333340       0.11078890 </v>
   <v>       0.86666660       0.33333340       0.11078890 </v>
   <v>       0.86666660       0.53333340       0.11078890 </v>
   <v>       0.86666660       0.73333340       0.11078890 </v>
   <v>       0.86666660       0.93333340       0.11078890 </v>
   <v>       0.13333340       0.06666660       0.35149823 </v>
   <v>       0.13333340       0.26666660       0.35149823 </v>
   <v>       0.13333340       0.46666660       0.35149823 </v>
   <v>       0.13333340       0.66666660       0.35149823 </v>
   <v>       0.13333340       0.86666660       0.35149823 </v>
   <v>       0.33333340       0.06666660       0.35149823 </v>
   <v>       0.33333340       0.26666660       0.35149823 </v>
   <v>       0.33333340       0.46666660       0.35149823 </v>
   <v>       0.33333340       0.66666660       0.35149823 </v>
   <v>       0.33333340       0.86666660       0.35149823 </v>
   <v>       0.53333340       0.06666660       0.35149823 </v>
   <v>       0.53333340       0.26666660       0.35149823 </v>
   <v>       0.53333340       0.46666660       0.35149823 </v>
   <v>       0.53333340       0.66666660       0.35149823 </v>
   <v>       0.53333340       0.86666660       0.35149823 </v>
   <v>       0.73333340       0.06666660       0.35149823 </v>
   <v>       0.73333340       0.26666660       0.35149823 </v>
   <v>       0.73333340       0.46666660       0.35149823 </v>
   <v>       0.73333340       0.66666660       0.35149823 </v>
   <v>       0.73333340       0.86666660       0.35149823 </v>
   <v>       0.93333340       0.06666660       0.35149823 </v>
   <v>       0.93333340       0.26666660       0.35149823 </v>
   <v>       0.93333340       0.46666660       0.35149823 </v>
   <v>       0.93333340       0.66666660       0.35149823 </v>
   <v>       0.93333340       0.86666660       0.35149823 </v>
  </varray>
 </structure>
 <calculation>
  <scstep>
   <time name="dav">  730.35  730.84</time>
   <time name="total">  734.03  734.54</time>
   <energy>
    <i name="alphaZ">   2663.50501976 </i>
    <i name="ewald"> 179392.51435700 </i>
    <i name="hartreedc">-260947.74666499 </i>
    <i name="XCdc">   2448.29859276 </i>
    <i name="pawpsdc">  52926.14902547 </i>
    <i name="pawaedc"> -51276.01167565 </i>
    <i name="eentropy">     -0.07111645 </i>
    <i name="bandstr">  -5197.52323252 </i>
    <i name="atom">  90297.61965915 </i>
    <i name="e_fr_energy">  10306.73396452 </i>
    <i name="e_wo_entrp">  10306.80508097 </i>
    <i name="e_0_energy">  10306.76952274 </i>
   </energy>
  </scstep>
  <scstep>
   <time name="dav">  747.22  747.71</time>
   <time name="total">  747.22  747.72</time>
   <energy>
    <i name="e_fr_energy">   -101.92936755 </i>
    <i name="e_wo_entrp">   -101.92933276 </i>
    <i name="e_0_energy">   -101.92935015 </i>
   </energy>
  </scstep>
  <scstep>
   <time name="dav">  747.62  748.11</time>
   <time name="total">  747.62  748.12</time>
   <energy>
    <i name="e_fr_energy">  -1071.92227081 </i>
    <i name="e_wo_entrp">  -1071.92227081 </i>
    <i name="e_0_energy">  -1071.92227081 </i>
   </energy>
  </scstep>
  <scstep>
   <time name="dav">  779.10  779.61</time>
   <time name="total">  779.10  779.62</time>
   <energy>
    <i name="e_fr_energy">  -1106.97901961 </i>
    <i name="e_wo_entrp">  -1106.97901961 </i>
    <i name="e_0_energy">  -1106.97901961 </i>
   </energy>
  </scstep>
  <scstep>
   <time name="dav">  766.83  767.33</time>
   <time name="total">  777.18  777.72</time>
   <energy>
    <i name="e_fr_energy">  -1107.96498678 </i>
    <i name="e_wo_entrp">  -1107.96498678 </i>
    <i name="e_0_energy">  -1107.96498678 </i>
   </energy>
  </scstep>
  <scstep>
   <time name="dav">  818.75  819.30</time>
   <time name="total">  832.72  833.35</time>
   <energy>
    <i name="e_fr_energy">  -1085.83403539 </i>
    <i name="e_wo_entrp">  -1085.83403539 </i>
    <i name="e_0_energy">  -1085.83403539 </i>
   </energy>
  </scstep>
  <scstep>
   <time name="dav">  731.16  731.64</time>
   <time name="total">  745.12  745.67</time>
   <energy>
    <i name="e_fr_energy">  -1078.79198690 </i>
    <i name="e_wo_entrp">  -1078.79198690 </i>
    <i name="e_0_energy">  -1078.79198690 </i>
   </energy>
  </scstep>
  <scstep>
   <time name="dav">  731.51  731.99</time>
   <time name="total">  745.48  746.03</time>
   <energy>
    <i name="e_fr_energy">  -1074.83172820 </i>
    <i name="e_wo_entrp">  -1074.83172820 </i>
    <i name="e_0_energy">  -1074.83172820 </i>
   </energy>
  </scstep>
  <scstep>
   <time name="dav">  728.74  729.22</time>
   <time name="total">  742.75  743.29</time>
   <energy>
    <i name="e_fr_energy">  -1073.56396827 </i>
    <i name="e_wo_entrp">  -1073.56396827 </i>
    <i name="e_0_energy">  -1073.56396827 </i>
   </energy>
  </scstep>
  <scstep>
   <time name="dav">  707.21  707.68</time>
   <time name="total">  721.15  721.69</time>
   <energy>
    <i name="e_fr_energy">  -1073.47978635 </i>
    <i name="e_wo_entrp">  -1073.47978635 </i>
    <i name="e_0_energy">  -1073.47978635 </i>
   </energy>
  </scstep>
  <scstep>
   <time name="dav">  713.95  714.42</time>
   <time name="total">  728.08  728.62</time>
   <energy>
    <i name="e_fr_energy">  -1073.23040497 </i>
    <i name="e_wo_entrp">  -1073.23040497 </i>
    <i name="e_0_energy">  -1073.23040497 </i>
   </energy>
  </scstep>
  <scstep>
   <time name="dav">  750.94  751.44</time>
   <time name="total">  764.91  765.47</time>
   <energy>
    <i name="e_fr_energy">  -1073.22941880 </i>
    <i name="e_wo_entrp">  -1073.22941880 </i>
    <i name="e_0_energy">  -1073.22941880 </i>
   </energy>
  </scstep>
  <scstep>
   <time name="dav">  729.28  729.76</time>
   <time name="total">  743.26  743.81</time>
   <energy>
    <i name="e_fr_energy">  -1073.22637665 </i>
    <i name="e_wo_entrp">  -1073.22637665 </i>
    <i name="e_0_energy">  -1073.22637665 </i>
   </energy>
  </scstep>
  <scstep>
   <time name="dav">  741.09  741.58</time>
   <time name="total">  755.11  755.66</time>
   <energy>
    <i name="e_fr_energy">  -1073.22592229 </i>
    <i name="e_wo_entrp">  -1073.22592229 </i>
    <i name="e_0_energy">  -1073.22592229 </i>
   </energy>
  </scstep>
  <scstep>
   <time name="dav">  714.02  714.49</time>
   <time name="total">  728.09  728.62</time>
   <energy>
    <i name="e_fr_energy">  -1073.22626014 </i>
    <i name="e_wo_entrp">  -1073.22626014 </i>
    <i name="e_0_energy">  -1073.22626014 </i>
   </energy>
  </scstep>
  <scstep>
   <time name="dav">  733.85  734.33</time>
   <time name="total">  747.83  748.37</time>
   <energy>
    <i name="e_fr_energy">  -1073.22620804 </i>
    <i name="e_wo_entrp">  -1073.22620804 </i>
    <i name="e_0_energy">  -1073.22620804 </i>
   </energy>
  </scstep>
  <scstep>
   <time name="dav">  702.24  702.70</time>
   <time name="total">  716.24  716.77</time>
   <energy>
    <i name="e_fr_energy">  -1073.22616497 </i>
    <i name="e_wo_entrp">  -1073.22616497 </i>
    <i name="e_0_energy">  -1073.22616497 </i>
   </energy>
  </scstep>
  <scstep>
   <time name="dav">  663.57  664.01</time>
   <time name="total">  677.56  678.07</time>
   <energy>
    <i name="e_fr_energy">  -1073.22615370 </i>
    <i name="e_wo_entrp">  -1073.22615370 </i>
    <i name="e_0_energy">  -1073.22615370 </i>
   </energy>
  </scstep>
  <scstep>
   <time name="dav">  442.35  442.64</time>
   <time name="total">  445.98  446.31</time>
   <energy>
    <i name="alphaZ">   2663.50501976 </i>
    <i name="ewald"> 179392.51435700 </i>
    <i name="hartreedc">-260833.99549406 </i>
    <i name="XCdc">   2420.90537045 </i>
    <i name="pawpsdc">  56963.71276240 </i>
    <i name="pawaedc"> -55540.74221363 </i>
    <i name="eentropy">     -0.00000000 </i>
    <i name="bandstr"> -16436.74561192 </i>
    <i name="atom">  90297.61965915 </i>
    <i name="e_fr_energy">  -1073.22615085 </i>
    <i name="e_wo_entrp">  -1073.22615085 </i>
    <i name="e_0_energy">  -1073.22615085 </i>
   </energy>
  </scstep>
  <structure>
   <crystal>
    <varray name="basis" >
     <v>      15.95157981       0.00000000       0.00000000 </v>
     <v>      -7.97578990      13.81447335       0.00000000 </v>
     <v>       0.00000000       0.00000000      28.24983972 </v>
    </varray>
    <i name="volume">   6225.21022374 </i>
    <varray name="rec_basis" >
     <v>       0.06268972       0.03619392       0.00000000 </v>
     <v>       0.00000000       0.07238785       0.00000000 </v>
     <v>       0.00000000       0.00000000       0.03539843 </v>
    </varray>
   </crystal>
   <varray name="positions" >
    <v>       0.13333340       0.06666660       0.05539445 </v>
    <v>       0.13333340       0.26666660       0.05539445 </v>
    <v>       0.13333340       0.46666660       0.05539445 </v>
    <v>       0.13333340       0.66666660       0.05539445 </v>
    <v>       0.13333340       0.86666660       0.05539445 </v>
    <v>       0.33333340       0.06666660       0.05539445 </v>
    <v>       0.33333340       0.26666660       0.05539445 </v>
    <v>       0.33333340       0.46666660       0.05539445 </v>
    <v>       0.33333340       0.66666660       0.05539445 </v>
    <v>       0.33333340       0.86666660       0.05539445 </v>
    <v>       0.53333340       0.06666660       0.05539445 </v>
    <v>       0.53333340       0.26666660       0.05539445 </v>
    <v>       0.53333340       0.46666660       0.05539445 </v>
    <v>       0.53333340       0.66666660       0.05539445 </v>
    <v>       0.53333340       0.86666660       0.05539445 </v>
    <v>       0.73333340       0.06666660       0.05539445 </v>
    <v>       0.73333340       0.26666660       0.05539445 </v>
    <v>       0.73333340       0.46666660       0.05539445 </v>
    <v>       0.73333340       0.66666660       0.05539445 </v>
    <v>       0.73333340       0.86666660       0.05539445 </v>
    <v>       0.93333340       0.06666660       0.05539445 </v>
    <v>       0.93333340       0.26666660       0.05539445 </v>
    <v>       0.93333340       0.46666660       0.05539445 </v>
    <v>       0.93333340       0.66666660       0.05539445 </v>
    <v>       0.93333340       0.86666660       0.05539445 </v>
    <v>       0.06666660       0.13333340       0.41026088 </v>
    <v>       0.06666660       0.33333340       0.41026088 </v>
    <v>       0.06666660       0.53333340       0.41026088 </v>
    <v>       0.06666660       0.73333340       0.41026088 </v>
    <v>       0.06666660       0.93333340       0.41026088 </v>
    <v>       0.26666660       0.13333340       0.41026088 </v>
    <v>       0.26666660       0.33333340       0.41026088 </v>
    <v>       0.26666660       0.53333340       0.41026088 </v>
    <v>       0.26666660       0.73333340       0.41026088 </v>
    <v>       0.26666660       0.93333340       0.41026088 </v>
    <v>       0.46666660       0.13333340       0.41026088 </v>
    <v>       0.46666660       0.33333340       0.41026088 </v>
    <v>       0.46666660       0.53333340       0.41026088 </v>
    <v>       0.46666660       0.73333340       0.41026088 </v>
    <v>       0.46666660       0.93333340       0.41026088 </v>
    <v>       0.66666660       0.13333340       0.41026088 </v>
    <v>       0.66666660       0.33333340       0.41026088 </v>
    <v>       0.66666660       0.53333340       0.41026088 </v>
    <v>       0.66666660       0.73333340       0.41026088 </v>
    <v>       0.66666660       0.93333340       0.41026088 </v>
    <v>       0.86666660       0.13333340       0.41026088 </v>
    <v>       0.86666660       0.33333340       0.41026088 </v>
    <v>       0.86666660       0.53333340       0.41026088 </v>
    <v>       0.86666660       0.73333340       0.41026088 </v>
    <v>       0.86666660       0.93333340       0.41026088 </v>
    <v>       0.06666660       0.13333340       0.00000000 </v>
    <v>       0.06666660       0.33333340       0.00000000 </v>
    <v>       0.06666660       0.53333340       0.00000000 </v>
    <v>       0.06666660       0.73333340       0.00000000 </v>
    <v>       0.06666660       0.93333340       0.00000000 </v>
    <v>       0.26666660       0.13333340       0.00000000 </v>
    <v>       0.26666660       0.33333340       0.00000000 </v>
    <v>       0.26666660       0.53333340       0.00000000 </v>
    <v>       0.26666660       0.73333340       0.00000000 </v>
    <v>       0.26666660       0.93333340       0.00000000 </v>
    <v>       0.46666660       0.13333340       0.00000000 </v>
    <v>       0.46666660       0.33333340       0.00000000 </v>
    <v>       0.46666660       0.53333340       0.00000000 </v>
    <v>       0.46666660       0.73333340       0.00000000 </v>
    <v>       0.46666660       0.93333340       0.00000000 </v>
    <v>       0.66666660       0.13333340       0.00000000 </v>
    <v>       0.66666660       0.33333340       0.00000000 </v>
    <v>       0.66666660       0.53333340       0.00000000 </v>
    <v>       0.66666660       0.73333340       0.00000000 </v>
    <v>       0.66666660       0.93333340       0.00000000 </v>
    <v>       0.86666660       0.13333340       0.00000000 </v>
    <v>       0.86666660       0.33333340       0.00000000 </v>
    <v>       0.86666660       0.53333340       0.00000000 </v>
    <v>       0.86666660       0.73333340       0.00000000 </v>
    <v>       0.86666660       0.93333340       0.00000000 </v>
    <v>       0.13333340       0.06666660       0.46902354 </v>
    <v>       0.13333340       0.26666660       0.46902354 </v>
    <v>       0.13333340       0.46666660       0.46902354 </v>
    <v>       0.13333340       0.66666660       0.46902354 </v>
    <v>       0.13333340       0.86666660       0.46902354 </v>
    <v>       0.33333340       0.06666660       0.46902354 </v>
    <v>       0.33333340       0.26666660       0.46902354 </v>
    <v>       0.33333340       0.46666660       0.46902354 </v>
    <v>       0.33333340       0.66666660       0.46902354 </v>
    <v>       0.33333340       0.86666660       0.46902354 </v>
    <v>       0.53333340       0.06666660       0.46902354 </v>
    <v>       0.53333340       0.26666660       0.46902354 </v>
    <v>       0.53333340       0.46666660       0.46902354 </v>
    <v>       0.53333340       0.66666660       0.46902354 </v>
    <v>       0.53333340       0.86666660       0.46902354 </v>
    <v>       0.73333340       0.06666660       0.46902354 </v>
    <v>       0.73333340       0.26666660       0.46902354 </v>
    <v>       0.73333340       0.46666660       0.46902354 </v>
    <v>       0.73333340       0.66666660       0.46902354 </v>
    <v>       0.73333340       0.86666660       0.46902354 </v>
    <v>       0.93333340       0.06666660       0.46902354 </v>
    <v>       0.93333340       0.26666660       0.46902354 </v>
    <v>       0.93333340       0.46666660       0.46902354 </v>
    <v>       0.93333340       0.66666660       0.46902354 </v>
    <v>       0.93333340       0.86666660       0.46902354 </v>
    <v>       0.06666660       0.13333340       0.11078890 </v>
    <v>       0.06666660       0.33333340       0.11078890 </v>
    <v>       0.06666660       0.53333340       0.11078890 </v>
    <v>       0.06666660       0.73333340       0.11078890 </v>
    <v>       0.06666660       0.93333340       0.11078890 </v>
    <v>       0.26666660       0.13333340       0.11078890 </v>
    <v>       0.26666660       0.33333340       0.11078890 </v>
    <v>       0.26666660       0.53333340       0.11078890 </v>
    <v>       0.26666660       0.73333340       0.11078890 </v>
    <v>       0.26666660       0.93333340       0.11078890 </v>
    <v>       0.46666660       0.13333340       0.11078890 </v>
    <v>       0.46666660       0.33333340       0.11078890 </v>
    <v>       0.46666660       0.53333340       0.11078890 </v>
    <v>       0.46666660       0.73333340       0.11078890 </v>
    <v>       0.46666660       0.93333340       0.11078890 </v>
    <v>       0.66666660       0.13333340       0.11078890 </v>
    <v>       0.66666660       0.33333340       0.11078890 </v>
    <v>       0.66666660       0.53333340       0.11078890 </v>
    <v>       0.66666660       0.73333340       0.11078890 </v>
    <v>       0.66666660       0.93333340       0.11078890 </v>
    <v>       0.86666660       0.13333340       0.11078890 </v>
    <v>       0.86666660       0.33333340       0.11078890 </v>
    <v>       0.86666660       0.53333340       0.11078890 </v>
    <v>       0.86666660       0.73333340       0.11078890 </v>
    <v>       0.86666660       0.93333340       0.11078890 </v>
    <v>       0.13333340       0.06666660       0.35149823 </v>
    <v>       0.13333340       0.26666660       0.35149823 </v>
    <v>       0.13333340       0.46666660       0.35149823 </v>
    <v>       0.13333340       0.66666660       0.35149823 </v>
    <v>       0.13333340       0.86666660       0.35149823 </v>
    <v>       0.33333340       0.06666660       0.35149823 </v>
    <v>       0.33333340       0.26666660       0.35149823 </v>
    <v>       0.33333340       0.46666660       0.35149823 </v>
    <v>       0.33333340       0.66666660       0.35149823 </v>
    <v>       0.33333340       0.86666660       0.35149823 </v>
    <v>       0.53333340       0.06666660       0.35149823 </v>
    <v>       0.53333340       0.26666660       0.35149823 </v>
    <v>       0.53333340       0.46666660       0.35149823 </v>
    <v>       0.53333340       0.66666660       0.35149823 </v>
    <v>       0.53333340       0.86666660       0.35149823 </v>
    <v>       0.73333340       0.06666660       0.35149823 </v>
    <v>       0.73333340       0.26666660       0.35149823 </v>
    <v>       0.73333340       0.46666660       0.35149823 </v>
    <v>       0.73333340       0.66666660       0.35149823 </v>
    <v>       0.73333340       0.86666660       0.35149823 </v>
    <v>       0.93333340       0.06666660       0.35149823 </v>
    <v>       0.93333340       0.26666660       0.35149823 </v>
    <v>       0.93333340       0.46666660       0.35149823 </v>
    <v>       0.93333340       0.66666660       0.35149823 </v>
    <v>       0.93333340       0.86666660       0.35149823 </v>
   </varray>
  </structure>
  <varray name="forces" >
   <v>      -0.00000000       0.00000000      -2.99265657 </v>
   <v>      -0.00000000       0.00000000      -2.99265657 </v>
   <v>      -0.00000000       0.00000000      -2.99265657 </v>
   <v>      -0.00000000      -0.00000000      -2.99265657 </v>
   <v>      -0.00000000      -0.00000000      -2.99265657 </v>
   <v>      -0.00000000      -0.00000000      -2.99265657 </v>
   <v>      -0.00000000       0.00000000      -2.99265657 </v>
   <v>      -0.00000000       0.00000000      -2.99265657 </v>
   <v>      -0.00000000      -0.00000000      -2.99265657 </v>
   <v>      -0.00000000      -0.00000000      -2.99265657 </v>
   <v>      -0.00000000      -0.00000000      -2.99265657 </v>
   <v>       0.00000000       0.00000000      -2.99265657 </v>
   <v>      -0.00000000      -0.00000000      -2.99265657 </v>
   <v>      -0.00000000      -0.00000000      -2.99265657 </v>
   <v>      -0.00000000      -0.00000000      -2.99265657 </v>
   <v>       0.00000000      -0.00000000      -2.99265657 </v>
   <v>      -0.00000000       0.00000000      -2.99265657 </v>
   <v>      -0.00000000       0.00000000      -2.99265657 </v>
   <v>      -0.00000000      -0.00000000      -2.99265657 </v>
   <v>       0.00000000      -0.00000000      -2.99265657 </v>
   <v>      -0.00000000      -0.00000000      -2.99265657 </v>
   <v>      -0.00000000       0.00000000      -2.99265657 </v>
   <v>      -0.00000000       0.00000000      -2.99265657 </v>
   <v>      -0.00000000      -0.00000000      -2.99265657 </v>
   <v>      -0.00000000      -0.00000000      -2.99265657 </v>
   <v>       0.00000000      -0.00000000       2.72139029 </v>
   <v>       0.00000000      -0.00000000       2.72139029 </v>
   <v>       0.00000000      -0.00000000       2.72139029 </v>
   <v>       0.00000000       0.00000000       2.72139029 </v>
   <v>       0.00000000       0.00000000       2.72139029 </v>
   <v>       0.00000000      -0.00000000       2.72139029 </v>
   <v>       0.00000000      -0.00000000       2.72139029 </v>
   <v>       0.00000000      -0.00000000       2.72139029 </v>
   <v>       0.00000000      -0.00000000       2.72139029 </v>
   <v>       0.00000000       0.00000000       2.72139029 </v>
   <v>       0.00000000       0.00000000       2.72139029 </v>
   <v>       0.00000000      -0.00000000       2.72139029 </v>
   <v>       0.00000000       0.00000000       2.72139029 </v>
   <v>       0.00000000       0.00000000       2.72139029 </v>
   <v>       0.00000000       0.00000000       2.72139029 </v>
   <v>       0.00000000      -0.00000000       2.72139029 </v>
   <v>       0.00000000      -0.00000000       2.72139029 </v>
   <v>       0.00000000       0.00000000       2.72139029 </v>
   <v>       0.00000000       0.00000000       2.72139029 </v>
   <v>       0.00000000       0.00000000       2.72139029 </v>
   <v>       0.00000000      -0.00000000       2.72139029 </v>
   <v>       0.00000000      -0.00000000       2.72139029 </v>
   <v>       0.00000000      -0.00000000       2.72139029 </v>
   <v>       0.00000000       0.00000000       2.72139029 </v>
   <v>       0.00000000       0.00000000       2.72139029 </v>
   <v>      -0.00000000      -0.00000000      -0.00170063 </v>
   <v>       0.00000000      -0.00000000      -0.00170063 </v>
   <v>       0.00000000      -0.00000000      -0.00170063 </v>
   <v>      -0.00000000      -0.00000000      -0.00170063 </v>
   <v>       0.00000000       0.00000000      -0.00170063 </v>
   <v>      -0.00000000      -0.00000000      -0.00170063 </v>
   <v>       0.00000000      -0.00000000      -0.00170063 </v>
   <v>       0.00000000      -0.00000000      -0.00170063 </v>
   <v>       0.00000000      -0.00000000      -0.00170063 </v>
   <v>       0.00000000       0.00000000      -0.00170063 </v>
   <v>      -0.00000000      -0.00000000      -0.00170063 </v>
   <v>       0.00000000      -0.00000000      -0.00170063 </v>
   <v>       0.00000000      -0.00000000      -0.00170063 </v>
   <v>      -0.00000000      -0.00000000      -0.00170063 </v>
   <v>      -0.00000000      -0.00000000      -0.00170063 </v>
   <v>      -0.00000000      -0.00000000      -0.00170063 </v>
   <v>       0.00000000      -0.00000000      -0.00170063 </v>
   <v>       0.00000000      -0.00000000      -0.00170063 </v>
   <v>      -0.00000000      -0.00000000      -0.00170063 </v>
   <v>       0.00000000      -0.00000000      -0.00170063 </v>
   <v>      -0.00000000      -0.00000000      -0.00170063 </v>
   <v>      -0.00000000      -0.00000000      -0.00170063 </v>
   <v>       0.00000000      -0.00000000      -0.00170063 </v>
   <v>       0.00000000      -0.00000000      -0.00170063 </v>
   <v>       0.00000000      -0.00000000      -0.00170063 </v>
   <v>       0.00000000      -0.00000000      -1.52227129 </v>
   <v>      -0.00000000      -0.00000000      -1.52227129 </v>
   <v>       0.00000000       0.00000000      -1.52227129 </v>
   <v>       0.00000000       0.00000000      -1.52227129 </v>
   <v>      -0.00000000      -0.00000000      -1.52227129 </v>
   <v>       0.00000000      -0.00000000      -1.52227129 </v>
   <v>       0.00000000      -0.00000000      -1.52227129 </v>
   <v>       0.00000000       0.00000000      -1.52227129 </v>
   <v>       0.00000000       0.00000000      -1.52227129 </v>
   <v>       0.00000000      -0.00000000      -1.52227129 </v>
   <v>       0.00000000      -0.00000000      -1.52227129 </v>
   <v>       0.00000000      -0.00000000      -1.52227129 </v>
   <v>       0.00000000       0.00000000      -1.52227129 </v>
   <v>       0.00000000       0.00000000      -1.52227129 </v>
   <v>      -0.00000000       0.00000000      -1.52227129 </v>
   <v>       0.00000000      -0.00000000      -1.52227129 </v>
   <v>       0.00000000       0.00000000      -1.52227129 </v>
   <v>       0.00000000       0.00000000      -1.52227129 </v>
   <v>       0.00000000       0.00000000      -1.52227129 </v>
   <v>      -0.00000000      -0.00000000      -1.52227129 </v>
   <v>       0.00000000      -0.00000000      -1.52227129 </v>
   <v>      -0.00000000      -0.00000000      -1.52227129 </v>
   <v>       0.00000000       0.00000000      -1.52227129 </v>
   <v>       0.00000000       0.00000000      -1.52227129 </v>
   <v>       0.00000000      -0.00000000      -1.52227129 </v>
   <v>      -0.00000000       0.00000000       3.01397127 </v>
   <v>      -0.00000000       0.00000000       3.01397127 </v>
   <v>      -0.00000000      -0.00000000       3.01397127 </v>
   <v>       0.00000000       0.00000000       3.01397127 </v>
   <v>      -0.00000000       0.00000000       3.01397127 </v>
   <v>      -0.00000000       0.00000000       3.01397127 </v>
   <v>      -0.00000000       0.00000000       3.01397127 </v>
   <v>      -0.00000000      -0.00000000       3.01397127 </v>
   <v>       0.00000000       0.00000000       3.01397127 </v>
   <v>      -0.00000000       0.00000000       3.01397127 </v>
   <v>      -0.00000000       0.00000000       3.01397127 </v>
   <v>      -0.00000000       0.00000000       3.01397127 </v>
   <v>       0.00000000       0.00000000       3.01397127 </v>
   <v>       0.00000000      -0.00000000       3.01397127 </v>
   <v>      -0.00000000       0.00000000       3.01397127 </v>
   <v>      -0.00000000      -0.00000000       3.01397127 </v>
   <v>      -0.00000000       0.00000000       3.01397127 </v>
   <v>       0.00000000       0.00000000       3.01397127 </v>
   <v>       0.00000000       0.00000000       3.01397127 </v>
   <v>      -0.00000000       0.00000000       3.01397127 </v>
   <v>      -0.00000000      -0.00000000       3.01397127 </v>
   <v>      -0.00000000       0.00000000       3.01397127 </v>
   <v>      -0.00000000       0.00000000       3.01397127 </v>
   <v>      -0.00000000      -0.00000000       3.01397127 </v>
   <v>      -0.00000000       0.00000000       3.01397127 </v>
   <v>      -0.00000000      -0.00000000      -1.21873308 </v>
   <v>       0.00000000       0.00000000      -1.21873308 </v>
   <v>      -0.00000000       0.00000000      -1.21873308 </v>
   <v>      -0.00000000       0.00000000      -1.21873308 </v>
   <v>      -0.00000000      -0.00000000      -1.21873308 </v>
   <v>      -0.00000000       0.00000000      -1.21873308 </v>
   <v>       0.00000000       0.00000000      -1.21873308 </v>
   <v>      -0.00000000       0.00000000      -1.21873308 </v>
   <v>      -0.00000000       0.00000000      -1.21873308 </v>
   <v>      -0.00000000       0.00000000      -1.21873308 </v>
   <v>      -0.00000000       0.00000000      -1.21873308 </v>
   <v>       0.00000000      -0.00000000      -1.21873308 </v>
   <v>      -0.00000000       0.00000000      -1.21873308 </v>
   <v>      -0.00000000       0.00000000      -1.21873308 </v>
   <v>      -0.00000000      -0.00000000      -1.21873308 </v>
   <v>      -0.00000000       0.00000000      -1.21873308 </v>
   <v>      -0.00000000       0.00000000      -1.21873308 </v>
   <v>      -0.00000000       0.00000000      -1.21873308 </v>
   <v>      -0.00000000      -0.00000000      -1.21873308 </v>
   <v>      -0.00000000      -0.00000000      -1.21873308 </v>
   <v>      -0.00000000       0.00000000      -1.21873308 </v>
   <v>       0.00000000       0.00000000      -1.21873308 </v>
   <v>       0.00000000       0.00000000      -1.21873308 </v>
   <v>      -0.00000000      -0.00000000      -1.21873308 </v>
   <v>      -0.00000000       0.00000000      -1.21873308 </v>
  </varray>
  <varray name="stress" >
   <v>      24.29309147       0.00000000      -0.00000000 </v>
   <v>       0.00000000      24.29309147       0.00000000 </v>
   <v>      -0.00000000       0.00000000      25.42502372 </v>
  </varray>
  <energy>
   <i name="e_fr_energy">  -1124.64725123 </i>
   <i name="e_wo_entrp">  -1124.64725123 </i>
   <i name="e_0_energy">     -0.00000000 </i>
  </energy>
  <time name="totalsc">15281.9015293.70</time>
 </calculation>
 <calculation>
  <scstep>
   <time name="dav">  663.00  663.44</time>
   <time name="total">  676.98  677.49</time>
   <energy>
    <i name="alphaZ">   2663.50501976 </i>
    <i name="ewald"> 176216.58395832 </i>
    <i name="hartreedc">-257722.89601677 </i>
    <i name="XCdc">   2415.06383520 </i>
    <i name="pawpsdc">  56963.49610352 </i>
    <i name="pawaedc"> -55540.52122065 </i>
    <i name="eentropy">     -0.00000000 </i>
    <i name="bandstr"> -16350.93693902 </i>
    <i name="atom">  90297.61965915 </i>
    <i name="e_fr_energy">  -1058.08560050 </i>
    <i name="e_wo_entrp">  -1058.08560050 </i>
    <i name="e_0_energy">  -1058.08560050 </i>
   </energy>
  </scstep>
  <scstep>
   <time name="dav">  643.29  643.71</time>
   <time name="total">  657.28  657.77</time>
   <energy>
    <i name="e_fr_energy">  -1080.95200282 </i>
    <i name="e_wo_entrp">  -1080.95200282 </i>
    <i name="e_0_energy">  -1080.95200282 </i>
   </energy>
  </scstep>
  <scstep>
   <time name="dav">  743.43  743.93</time>
   <time name="total">  757.42  757.98</time>
   <energy>
    <i name="e_fr_energy">  -1081.03375788 </i>
    <i name="e_wo_entrp">  -1081.03375788 </i>
    <i name="e_0_energy">  -1081.03375788 </i>
   </energy>
  </scstep>
  <scstep>
   <time name="dav">  735.87  736.36</time>
   <time name="total">  749.87  750.41</time>
   <energy>
    <i name="e_fr_energy">  -1080.93212131 </i>
    <i name="e_wo_entrp">  -1080.93212131 </i>
    <i name="e_0_energy">  -1080.93212131 </i>
   </energy>
  </scstep>
  <scstep>
   <time name="dav">  760.37  760.87</time>
   <time name="total">  774.40  774.98</time>
   <energy>
    <i name="e_fr_energy">  -1080.92431776 </i>
    <i name="e_wo_entrp">  -1080.92431776 </i>
    <i name="e_0_energy">  -1080.92431776 </i>
   </energy>
  </scstep>
  <scstep>
   <time name="dav">  726.03  726.51</time>
   <time name="total">  740.02  740.57</time>
   <energy>
    <i name="e_fr_energy">  -1080.91685693 </i>
    <i name="e_wo_entrp">  -1080.91685693 </i>
    <i name="e_0_energy">  -1080.91685693 </i>
   </energy>
  </scstep>
  <scstep>
   <time name="dav">  743.22  743.71</time>
   <time name="total">  757.19  757.76</time>
   <energy>
    <i name="e_fr_energy">  -1080.91566866 </i>
    <i name="e_wo_entrp">  -1080.91566866 </i>
    <i name="e_0_energy">  -1080.91566866 </i>
   </energy>
  </scstep>
  <scstep>
   <time name="dav">  716.14  716.62</time>
   <time name="total">  730.27  730.81</time>
   <energy>
    <i name="e_fr_energy">  -1080.91543629 </i>
    <i name="e_wo_entrp">  -1080.91543629 </i>
    <i name="e_0_energy">  -1080.91543629 </i>
   </energy>
  </scstep>
  <scstep>
   <time name="dav">  726.39  726.87</time>
   <time name="total">  740.40  740.95</time>
   <energy>
    <i name="e_fr_energy">  -1080.91524687 </i>
    <i name="e_wo_entrp">  -1080.91524687 </i>
    <i name="e_0_energy">  -1080.91524687 </i>
   </energy>
  </scstep>
  <scstep>
   <time name="dav">  723.94  724.42</time>
   <time name="total">  737.94  738.49</time>
   <energy>
    <i name="e_fr_energy">  -1080.91521199 </i>
    <i name="e_wo_entrp">  -1080.91521199 </i>
    <i name="e_0_energy">  -1080.91521199 </i>
   </energy>
  </scstep>
  <scstep>
   <time name="dav">  675.85  676.30</time>
   <time name="total">  689.84  690.36</time>
   <energy>
    <i name="e_fr_energy">  -1080.91518901 </i>
    <i name="e_wo_entrp">  -1080.91518901 </i>
    <i name="e_0_energy">  -1080.91518901 </i>
   </energy>
  </scstep>
  <scstep>
   <time name="dav">  661.12  661.56</time>
   <time name="total">  664.74  665.21</time>
   <energy>
    <i name="alphaZ">   2663.50501976 </i>
    <i name="ewald"> 176216.58395832 </i>
    <i name="hartreedc">-257691.98624803 </i>
    <i name="XCdc">   2415.45679238 </i>
    <i name="pawpsdc">  56552.39397955 </i>
    <i name="pawaedc"> -55125.33506320 </i>
    <i name="eentropy">     -0.00000000 </i>
    <i name="bandstr"> -16409.15328890 </i>
    <i name="atom">  90297.61965915 </i>
    <i name="e_fr_energy">  -1080.91519098 </i>
    <i name="e_wo_entrp">  -1080.91519098 </i>
    <i name="e_0_energy">  -1080.91519098 </i>
   </energy>
  </scstep>
  <structure>
   <crystal>
    <varray name="basis" >
     <v>      15.95157981       0.00000000       0.00000000 </v>
     <v>      -7.97578990      13.81447335       0.00000000 </v>
     <v>       0.00000000       0.00000000      28.24983972 </v>
    </varray>
    <i name="volume">   6225.21022374 </i>
    <varray name="rec_basis" >
     <v>       0.06268972       0.03619392       0.00000000 </v>
     <v>       0.00000000       0.07238785       0.00000000 </v>
     <v>       0.00000000       0.00000000       0.03539843 </v>
    </varray>
   </crystal>
   <varray name="positions" >
    <v>       0.13333340       0.06666660       0.05232809 </v>
    <v>       0.13333340       0.26666660       0.05232809 </v>
    <v>       0.13333340       0.46666660       0.05232809 </v>
    <v>       0.13333340       0.66666660       0.05232809 </v>
    <v>       0.13333340       0.86666660       0.05232809 </v>
    <v>       0.33333340       0.06666660       0.05232809 </v>
    <v>       0.33333340       0.26666660       0.05232809 </v>
    <v>       0.33333340       0.46666660       0.05232809 </v>
    <v>       0.33333340       0.66666660       0.05232809 </v>
    <v>       0.33333340       0.86666660       0.05232809 </v>
    <v>       0.53333340       0.06666660       0.05232809 </v>
    <v>       0.53333340       0.26666660       0.05232809 </v>
    <v>       0.53333340       0.46666660       0.05232809 </v>
    <v>       0.53333340       0.66666660       0.05232809 </v>
    <v>       0.53333340       0.86666660       0.05232809 </v>
    <v>       0.73333340       0.06666660       0.05232809 </v>
    <v>       0.73333340       0.26666660       0.05232809 </v>
    <v>       0.73333340       0.46666660       0.05232809 </v>
    <v>       0.73333340       0.66666660       0.05232809 </v>
    <v>       0.73333340       0.86666660       0.05232809 </v>
    <v>       0.93333340       0.06666660       0.05232809 </v>
    <v>       0.93333340       0.26666660       0.05232809 </v>
    <v>       0.93333340       0.46666660       0.05232809 </v>
    <v>       0.93333340       0.66666660       0.05232809 </v>
    <v>       0.93333340       0.86666660       0.05232809 </v>
    <v>       0.06666660       0.13333340       0.41304930 </v>
    <v>       0.06666660       0.33333340       0.41304930 </v>
    <v>       0.06666660       0.53333340       0.41304930 </v>
    <v>       0.06666660       0.73333340       0.41304930 </v>
    <v>       0.06666660       0.93333340       0.41304930 </v>
    <v>       0.26666660       0.13333340       0.41304930 </v>
    <v>       0.26666660       0.33333340       0.41304930 </v>
    <v>       0.26666660       0.53333340       0.41304930 </v>
    <v>       0.26666660       0.73333340       0.41304930 </v>
    <v>       0.26666660       0.93333340       0.41304930 </v>
    <v>       0.46666660       0.13333340       0.41304930 </v>
    <v>       0.46666660       0.33333340       0.41304930 </v>
    <v>       0.46666660       0.53333340       0.41304930 </v>
    <v>       0.46666660       0.73333340       0.41304930 </v>
    <v>       0.46666660       0.93333340       0.41304930 </v>
    <v>       0.66666660       0.13333340       0.41304930 </v>
    <v>       0.66666660       0.33333340       0.41304930 </v>
    <v>       0.66666660       0.53333340       0.41304930 </v>
    <v>       0.66666660       0.73333340       0.41304930 </v>
    <v>       0.66666660       0.93333340       0.41304930 </v>
    <v>       0.86666660       0.13333340       0.41304930 </v>
    <v>       0.86666660       0.33333340       0.41304930 </v>
    <v>       0.86666660       0.53333340       0.41304930 </v>
    <v>       0.86666660       0.73333340       0.41304930 </v>
    <v>       0.86666660       0.93333340       0.41304930 </v>
    <v>       0.06666660       0.13333340      -0.00000174 </v>
    <v>       0.06666660       0.33333340      -0.00000174 </v>
    <v>       0.06666660       0.53333340      -0.00000174 </v>
    <v>       0.06666660       0.73333340      -0.00000174 </v>
    <v>       0.06666660       0.93333340      -0.00000174 </v>
    <v>       0.26666660       0.13333340      -0.00000174 </v>
    <v>       0.26666660       0.33333340      -0.00000174 </v>
    <v>       0.26666660       0.53333340      -0.00000174 </v>
    <v>       0.26666660       0.73333340      -0.00000174 </v>
    <v>       0.26666660       0.93333340      -0.00000174 </v>
    <v>       0.46666660       0.13333340      -0.00000174 </v>
    <v>       0.46666660       0.33333340      -0.00000174 </v>
    <v>       0.46666660       0.53333340      -0.00000174 </v>
    <v>       0.46666660       0.73333340      -0.00000174 </v>
    <v>       0.46666660       0.93333340      -0.00000174 </v>
    <v>       0.66666660       0.13333340      -0.00000174 </v>
    <v>       0.66666660       0.33333340      -0.00000174 </v>
    <v>       0.66666660       0.53333340      -0.00000174 </v>
    <v>       0.66666660       0.73333340      -0.00000174 </v>
    <v>       0.66666660       0.93333340      -0.00000174 </v>
    <v>       0.86666660       0.13333340      -0.00000174 </v>
    <v>       0.86666660       0.33333340      -0.00000174 </v>
    <v>       0.86666660       0.53333340      -0.00000174 </v>
    <v>       0.86666660       0.73333340      -0.00000174 </v>
    <v>       0.86666660       0.93333340      -0.00000174 </v>
    <v>       0.13333340       0.06666660       0.46746377 </v>
    <v>       0.13333340       0.26666660       0.46746377 </v>
    <v>       0.13333340       0.46666660       0.46746377 </v>
    <v>       0.13333340       0.66666660       0.46746377 </v>
    <v>       0.13333340       0.86666660       0.46746377 </v>
    <v>       0.33333340       0.06666660       0.46746377 </v>
    <v>       0.33333340       0.26666660       0.46746377 </v>
    <v>       0.33333340       0.46666660       0.46746377 </v>
    <v>       0.33333340       0.66666660       0.46746377 </v>
    <v>       0.33333340       0.86666660       0.46746377 </v>
    <v>       0.53333340       0.06666660       0.46746377 </v>
    <v>       0.53333340       0.26666660       0.46746377 </v>
    <v>       0.53333340       0.46666660       0.46746377 </v>
    <v>       0.53333340       0.66666660       0.46746377 </v>
    <v>       0.53333340       0.86666660       0.46746377 </v>
    <v>       0.73333340       0.06666660       0.46746377 </v>
    <v>       0.73333340       0.26666660       0.46746377 </v>
    <v>       0.73333340       0.46666660       0.46746377 </v>
    <v>       0.73333340       0.66666660       0.46746377 </v>
    <v>       0.73333340       0.86666660       0.46746377 </v>
    <v>       0.93333340       0.06666660       0.46746377 </v>
    <v>       0.93333340       0.26666660       0.46746377 </v>
    <v>       0.93333340       0.46666660       0.46746377 </v>
    <v>       0.93333340       0.66666660       0.46746377 </v>
    <v>       0.93333340       0.86666660       0.46746377 </v>
    <v>       0.06666660       0.13333340       0.11387710 </v>
    <v>       0.06666660       0.33333340       0.11387710 </v>
    <v>       0.06666660       0.53333340       0.11387710 </v>
    <v>       0.06666660       0.73333340       0.11387710 </v>
    <v>       0.06666660       0.93333340       0.11387710 </v>
    <v>       0.26666660       0.13333340       0.11387710 </v>
    <v>       0.26666660       0.33333340       0.11387710 </v>
    <v>       0.26666660       0.53333340       0.11387710 </v>
    <v>       0.26666660       0.73333340       0.11387710 </v>
    <v>       0.26666660       0.93333340       0.11387710 </v>
    <v>       0.46666660       0.13333340       0.11387710 </v>
    <v>       0.46666660       0.33333340       0.11387710 </v>
    <v>       0.46666660       0.53333340       0.11387710 </v>
    <v>       0.46666660       0.73333340       0.11387710 </v>
    <v>       0.46666660       0.93333340       0.11387710 </v>
    <v>       0.66666660       0.13333340       0.11387710 </v>
    <v>       0.66666660       0.33333340       0.11387710 </v>
    <v>       0.66666660       0.53333340       0.11387710 </v>
    <v>       0.66666660       0.73333340       0.11387710 </v>
    <v>       0.66666660       0.93333340       0.11387710 </v>
    <v>       0.86666660       0.13333340       0.11387710 </v>
    <v>       0.86666660       0.33333340       0.11387710 </v>
    <v>       0.86666660       0.53333340       0.11387710 </v>
    <v>       0.86666660       0.73333340       0.11387710 </v>
    <v>       0.86666660       0.93333340       0.11387710 </v>
    <v>       0.13333340       0.06666660       0.35024948 </v>
    <v>       0.13333340       0.26666660       0.35024948 </v>
    <v>       0.13333340       0.46666660       0.35024948 </v>
    <v>       0.13333340       0.66666660       0.35024948 </v>
    <v>       0.13333340       0.86666660       0.35024948 </v>
    <v>       0.33333340       0.06666660       0.35024948 </v>
    <v>       0.33333340       0.26666660       0.35024948 </v>
    <v>       0.33333340       0.46666660       0.35024948 </v>
    <v>       0.33333340       0.66666660       0.35024948 </v>
    <v>       0.33333340       0.86666660       0.35024948 </v>
    <v>       0.53333340       0.06666660       0.35024948 </v>
    <v>       0.53333340       0.26666660       0.35024948 </v>
    <v>       0.53333340       0.46666660       0.35024948 </v>
    <v>       0.53333340       0.66666660       0.35024948 </v>
    <v>       0.53333340       0.86666660       0.35024948 </v>
    <v>       0.73333340       0.06666660       0.35024948 </v>
    <v>       0.73333340       0.26666660       0.35024948 </v>
    <v>       0.73333340       0.46666660       0.35024948 </v>
    <v>       0.73333340       0.66666660       0.35024948 </v>
    <v>       0.73333340       0.86666660       0.35024948 </v>
    <v>       0.93333340       0.06666660       0.35024948 </v>
    <v>       0.93333340       0.26666660       0.35024948 </v>
    <v>       0.93333340       0.46666660       0.35024948 </v>
    <v>       0.93333340       0.66666660       0.35024948 </v>
    <v>       0.93333340       0.86666660       0.35024948 </v>
   </varray>
  </structure>
  <varray name="forces" >
   <v>       0.00000000      -0.00000000       1.28209833 </v>
   <v>       0.00000000       0.00000000       1.28209833 </v>
   <v>       0.00000000      -0.00000000       1.28209833 </v>
   <v>       0.00000000       0.00000000       1.28209833 </v>
   <v>      -0.00000000      -0.00000000       1.28209833 </v>
   <v>       0.00000000      -0.00000000       1.28209833 </v>
   <v>       0.00000000       0.00000000       1.28209833 </v>
   <v>       0.00000000      -0.00000000       1.28209833 </v>
   <v>       0.00000000      -0.00000000       1.28209833 </v>
   <v>       0.00000000      -0.00000000       1.28209833 </v>
   <v>       0.00000000      -0.00000000       1.28209833 </v>
   <v>       0.00000000      -0.00000000       1.28209833 </v>
   <v>       0.00000000       0.00000000       1.28209833 </v>
   <v>       0.00000000      -0.00000000       1.28209833 </v>
   <v>      -0.00000000      -0.00000000       1.28209833 </v>
   <v>       0.00000000      -0.00000000       1.28209833 </v>
   <v>       0.00000000       0.00000000       1.28209833 </v>
   <v>       0.00000000      -0.00000000       1.28209833 </v>
   <v>       0.00000000      -0.00000000       1.28209833 </v>
   <v>       0.00000000       0.00000000       1.28209833 </v>
   <v>      -0.00000000      -0.00000000       1.28209833 </v>
   <v>       0.00000000       0.00000000       1.28209833 </v>
   <v>       0.00000000      -0.00000000       1.28209833 </v>
   <v>       0.00000000      -0.00000000       1.28209833 </v>
   <v>       0.00000000      -0.00000000       1.28209833 </v>
   <v>      -0.00000000       0.00000000      -0.86336274 </v>
   <v>      -0.00000000      -0.00000000      -0.86336274 </v>
   <v>      -0.00000000       0.00000000      -0.86336274 </v>
   <v>      -0.00000000      -0.00000000      -0.86336274 </v>
   <v>      -0.00000000       0.00000000      -0.86336274 </v>
   <v>      -0.00000000      -0.00000000      -0.86336274 </v>
   <v>      -0.00000000      -0.00000000      -0.86336274 </v>
   <v>      -0.00000000       0.00000000      -0.86336274 </v>
   <v>      -0.00000000       0.00000000      -0.86336274 </v>
   <v>      -0.00000000       0.00000000      -0.86336274 </v>
   <v>      -0.00000000       0.00000000      -0.86336274 </v>
   <v>      -0.00000000      -0.00000000      -0.86336274 </v>
   <v>       0.00000000       0.00000000      -0.86336274 </v>
   <v>      -0.00000000       0.00000000      -0.86336274 </v>
   <v>      -0.00000000       0.00000000      -0.86336274 </v>
   <v>      -0.00000000      -0.00000000      -0.86336274 </v>
   <v>      -0.00000000      -0.00000000      -0.86336274 </v>
   <v>      -0.00000000       0.00000000      -0.86336274 </v>
   <v>      -0.00000000      -0.00000000      -0.86336274 </v>
   <v>      -0.00000000       0.00000000      -0.86336274 </v>
   <v>      -0.00000000      -0.00000000      -0.86336274 </v>
   <v>      -0.00000000      -0.00000000      -0.86336274 </v>
   <v>      -0.00000000       0.00000000      -0.86336274 </v>
   <v>      -0.00000000       0.00000000      -0.86336274 </v>
   <v>      -0.00000000       0.00000000      -0.86336274 </v>
   <v>      -0.00000000       0.00000000      -1.20780031 </v>
   <v>      -0.00000000       0.00000000      -1.20780031 </v>
   <v>      -0.00000000       0.00000000      -1.20780031 </v>
   <v>      -0.00000000       0.00000000      -1.20780031 </v>
[...]
       <r>   -24.6862     0.0000   150.0000 </r>
       <r>   -24.5248     0.0000   150.0000 </r>
       <r>   -24.3634     0.0000   150.0000 </r>
       <r>   -24.2020     0.0000   150.0000 </r>
       <r>   -24.0405     0.0000   150.0000 </r>
       <r>   -23.8791     0.0000   150.0000 </r>
       <r>   -23.7177     0.0000   150.0000 </r>
       <r>   -23.5563     0.0000   150.0000 </r>
       <r>   -23.3949     0.0000   150.0000 </r>
       <r>   -23.2334     0.0000   150.0000 </r>
       <r>   -23.0720     0.0000   150.0000 </r>
       <r>   -22.9106     0.0000   150.0000 </r>
       <r>   -22.7492     0.0000   150.0000 </r>
       <r>   -22.5877     0.0000   150.0000 </r>
       <r>   -22.4263     0.0000   150.0000 </r>
       <r>   -22.2649     0.0000   150.0000 </r>
       <r>   -22.1035     0.0000   150.0000 </r>
       <r>   -21.9420     0.0000   150.0000 </r>
       <r>   -21.7806     0.0000   150.0000 </r>
       <r>   -21.6192     0.0000   150.0000 </r>
       <r>   -21.4578     0.0000   150.0000 </r>
       <r>   -21.2963     0.0000   150.0000 </r>
       <r>   -21.1349     0.0000   150.0000 </r>
       <r>   -20.9735     0.0000   150.0000 </r>
       <r>   -20.8121     0.0000   150.0000 </r>
       <r>   -20.6507     0.0000   150.0000 </r>
       <r>   -20.4892     0.0000   150.0000 </r>
       <r>   -20.3278     0.0000   150.0000 </r>
       <r>   -20.1664     0.0000   150.0000 </r>
       <r>   -20.0050     0.0000   150.0000 </r>
       <r>   -19.8435     0.0000   150.0000 </r>
       <r>   -19.6821     0.0000   150.0000 </r>
       <r>   -19.5207     0.0000   150.0000 </r>
       <r>   -19.3593     0.0000   150.0000 </r>
       <r>   -19.1978     0.0000   150.0000 </r>
       <r>   -19.0364     0.0000   150.0000 </r>
       <r>   -18.8750     0.0000   150.0000 </r>
       <r>   -18.7136     0.0000   150.0000 </r>
       <r>   -18.5522     0.0000   150.0000 </r>
       <r>   -18.3907     0.0000   150.0000 </r>
       <r>   -18.2293     0.0000   150.0000 </r>
       <r>   -18.0679     0.0000   150.0000 </r>
       <r>   -17.9065     0.0000   150.0000 </r>
       <r>   -17.7450     0.0000   150.0000 </r>
       <r>   -17.5836     0.0000   150.0000 </r>
       <r>   -17.4222     0.0000   150.0000 </r>
       <r>   -17.2608     0.0000   150.0000 </r>
       <r>   -17.0993     0.0000   150.0000 </r>
       <r>   -16.9379     0.0000   150.0000 </r>
       <r>   -16.7765     0.0000   150.0000 </r>
       <r>   -16.6151     0.0000   150.0000 </r>
       <r>   -16.4537     0.0000   150.0000 </r>
       <r>   -16.2922     0.0000   150.0000 </r>
       <r>   -16.1308     0.0000   150.0000 </r>
       <r>   -15.9694     0.0000   150.0000 </r>
       <r>   -15.8080     0.0000   150.0000 </r>
       <r>   -15.6465     0.0000   150.0000 </r>
       <r>   -15.4851     0.0548   150.0089 </r>
       <r>   -15.3237     4.1632   150.6809 </r>
       <r>   -15.1623     5.8116   151.6190 </r>
       <r>   -15.0008     7.8682   152.8891 </r>
       <r>   -14.8394    15.6395   155.4137 </r>
       <r>   -14.6780     7.8906   156.6874 </r>
       <r>   -14.5166    19.6119   159.8532 </r>
       <r>   -14.3551     8.7300   161.2625 </r>
       <r>   -14.1937    15.6166   163.7833 </r>
       <r>   -14.0323    16.0978   166.3819 </r>
       <r>   -13.8709    24.1229   170.2759 </r>
       <r>   -13.7095    38.8584   176.5485 </r>
       <r>   -13.5480    49.1869   184.4885 </r>
       <r>   -13.3866    50.8124   192.6908 </r>
       <r>   -13.2252    71.4050   204.2172 </r>
       <r>   -13.0638    87.8895   218.4046 </r>
       <r>   -12.9023   105.0414   235.3607 </r>
       <r>   -12.7409    74.6495   247.4109 </r>
       <r>   -12.5795    15.9591   249.9871 </r>
       <r>   -12.4181     0.0801   250.0000 </r>
       <r>   -12.2566     0.0000   250.0000 </r>
       <r>   -12.0952     0.0000   250.0000 </r>
       <r>   -11.9338     0.0000   250.0000 </r>
       <r>   -11.7724     0.0000   250.0000 </r>
       <r>   -11.6110     0.0000   250.0000 </r>
       <r>   -11.4495     0.0000   250.0000 </r>
       <r>   -11.2881     0.0000   250.0000 </r>
       <r>   -11.1267     0.0000   250.0000 </r>
       <r>   -10.9653     0.0000   250.0000 </r>
       <r>   -10.8038     0.0000   250.0000 </r>
       <r>   -10.6424     0.0000   250.0000 </r>
       <r>   -10.4810     0.0000   250.0000 </r>
       <r>   -10.3196     0.0000   250.0000 </r>
       <r>   -10.1581     0.0000   250.0000 </r>
       <r>    -9.9967     0.0000   250.0000 </r>
       <r>    -9.8353     0.0000   250.0000 </r>
       <r>    -9.6739     0.0000   250.0000 </r>
       <r>    -9.5125     0.0000   250.0000 </r>
       <r>    -9.3510     0.0000   250.0000 </r>
       <r>    -9.1896     0.0000   250.0000 </r>
       <r>    -9.0282     0.0000   250.0000 </r>
       <r>    -8.8668     0.0000   250.0000 </r>
       <r>    -8.7053     0.0000   250.0000 </r>
       <r>    -8.5439     0.0000   250.0000 </r>
       <r>    -8.3825     0.0000   250.0000 </r>
       <r>    -8.2211     0.0000   250.0000 </r>
       <r>    -8.0596     0.0000   250.0000 </r>
       <r>    -7.8982     0.0000   250.0000 </r>
       <r>    -7.7368     0.0000   250.0000 </r>
       <r>    -7.5754     0.0000   250.0000 </r>
       <r>    -7.4139     0.0000   250.0000 </r>
       <r>    -7.2525     0.0000   250.0000 </r>
       <r>    -7.0911     0.0458   250.0074 </r>
       <r>    -6.9297     8.2275   251.3355 </r>
       <r>    -6.7683    14.8288   253.7292 </r>
       <r>    -6.6068    17.1990   256.5055 </r>
       <r>    -6.4454    23.6514   260.3234 </r>
       <r>    -6.2840    44.8834   267.5687 </r>
       <r>    -6.1226    42.2211   274.3841 </r>
       <r>    -5.9611    65.4134   284.9434 </r>
       <r>    -5.7997    84.6312   298.6048 </r>
       <r>    -5.6383    81.2595   311.7220 </r>
       <r>    -5.4769    51.6825   320.0647 </r>
       <r>    -5.3154    25.3752   324.1609 </r>
       <r>    -5.1540    12.9189   326.2463 </r>
       <r>    -4.9926    40.1903   332.7339 </r>
       <r>    -4.8312    55.8240   341.7452 </r>
       <r>    -4.6698    88.0328   355.9558 </r>
       <r>    -4.5083    87.5830   370.0937 </r>
       <r>    -4.3469    50.4770   378.2419 </r>
       <r>    -4.1855    34.6354   383.8328 </r>
       <r>    -4.0241    61.5314   393.7654 </r>
       <r>    -3.8626    96.7542   409.3838 </r>
       <r>    -3.7012    76.9558   421.8063 </r>
       <r>    -3.5398    61.3938   431.7167 </r>
       <r>    -3.3784    55.8475   440.7317 </r>
       <r>    -3.2169    41.9998   447.5115 </r>
       <r>    -3.0555    28.0599   452.0410 </r>
       <r>    -2.8941    64.5032   462.4533 </r>
       <r>    -2.7327    91.6782   477.2523 </r>
       <r>    -2.5712    86.9322   491.2852 </r>
       <r>    -2.4098    48.6541   499.1391 </r>
       <r>    -2.2484    76.5625   511.4981 </r>
       <r>    -2.0870    68.4182   522.5424 </r>
       <r>    -1.9256    77.6773   535.0813 </r>
       <r>    -1.7641    51.3517   543.3707 </r>
       <r>    -1.6027    41.1182   550.0081 </r>
       <r>    -1.4413    33.0156   555.3376 </r>
       <r>    -1.2799    76.2957   567.6535 </r>
       <r>    -1.1184    83.4752   581.1283 </r>
       <r>    -0.9570    63.9291   591.4480 </r>
       <r>    -0.7956    39.7216   597.8599 </r>
       <r>    -0.6342    11.2326   599.6731 </r>
       <r>    -0.4727     1.9734   599.9917 </r>
       <r>    -0.3113     0.0514   600.0000 </r>
       <r>    -0.1499     0.0000   600.0000 </r>
       <r>     0.0115     0.0000   600.0000 </r>
       <r>     0.1729     0.0000   600.0000 </r>
       <r>     0.3344     0.0000   600.0000 </r>
       <r>     0.4958     0.0000   600.0000 </r>
       <r>     0.6572     0.0000   600.0000 </r>
       <r>     0.8186     0.0093   600.0015 </r>
       <r>     0.9801    10.8960   601.7604 </r>
       <r>     1.1415    37.3584   607.7909 </r>
       <r>     1.3029    56.3743   616.8910 </r>
       <r>     1.4643    67.1192   627.7256 </r>
       <r>     1.6258    66.3455   638.4353 </r>
       <r>     1.7872    74.8715   650.5213 </r>
       <r>     1.9486    81.7612   663.7195 </r>
       <r>     2.1100   105.1376   680.6911 </r>
       <r>     2.2714    89.4263   695.1266 </r>
       <r>     2.4329    77.5954   707.6523 </r>
       <r>     2.5943    84.3410   721.2669 </r>
       <r>     2.7557    73.6948   733.1630 </r>
       <r>     2.9171    46.9544   740.7425 </r>
       <r>     3.0786    42.2091   747.5560 </r>
       <r>     3.2400    44.8354   754.7935 </r>
       <r>     3.4014    69.0987   765.9477 </r>
       <r>     3.5628    47.8383   773.6699 </r>
       <r>     3.7243    34.0474   779.1659 </r>
       <r>     3.8857    35.2472   784.8556 </r>
       <r>     4.0471    53.3432   793.4665 </r>
       <r>     4.2085    20.6624   796.8019 </r>
       <r>     4.3700    22.6349   800.4557 </r>
       <r>     4.5314    11.0162   802.2339 </r>
       <r>     4.6928    12.6190   804.2709 </r>
       <r>     4.8542    21.7392   807.7801 </r>
       <r>     5.0156    27.4950   812.2185 </r>
       <r>     5.1771    17.8585   815.1012 </r>
       <r>     5.3385     5.5651   815.9996 </r>
       <r>     5.4999     0.0025   816.0000 </r>
       <r>     5.6613     0.0000   816.0000 </r>
       <r>     5.8228     0.0000   816.0000 </r>
       <r>     5.9842     0.0000   816.0000 </r>
       <r>     6.1456     0.0000   816.0000 </r>
       <r>     6.3070     0.0000   816.0000 </r>
       <r>     6.4685     0.0000   816.0000 </r>
       <r>     6.6299     0.0000   816.0000 </r>
       <r>     6.7913     0.0000   816.0000 </r>
       <r>     6.9527     0.0000   816.0000 </r>
       <r>     7.1141     0.0000   816.0000 </r>
       <r>     7.2756     0.0000   816.0000 </r>
       <r>     7.4370     0.0000   816.0000 </r>
      </set>
     </set>
    </array>
   </total>
  </dos>
 </calculation>
 <structure name="finalpos" >
  <crystal>
   <varray name="basis" >
    <v>      15.95157981       0.00000000       0.00000000 </v>
    <v>      -7.97578990      13.81447335       0.00000000 </v>
    <v>       0.00000000       0.00000000      28.24983972 </v>
   </varray>
   <i name="volume">   6225.21022374 </i>
   <varray name="rec_basis" >
    <v>       0.06268972       0.03619392       0.00000000 </v>
    <v>       0.00000000       0.07238785       0.00000000 </v>
    <v>       0.00000000       0.00000000       0.03539843 </v>
   </varray>
  </crystal>
  <varray name="positions" >
   <v>       0.13333340       0.06666660       0.05332084 </v>
   <v>       0.13333340       0.26666660       0.05332084 </v>
   <v>       0.13333340       0.46666660       0.05332084 </v>
   <v>       0.13333340       0.66666660       0.05332084 </v>
   <v>       0.13333340       0.86666660       0.05332084 </v>
   <v>       0.33333340       0.06666660       0.05332084 </v>
   <v>       0.33333340       0.26666660       0.05332084 </v>
   <v>       0.33333340       0.46666660       0.05332084 </v>
   <v>       0.33333340       0.66666660       0.05332084 </v>
   <v>       0.33333340       0.86666660       0.05332084 </v>
   <v>       0.53333340       0.06666660       0.05332084 </v>
   <v>       0.53333340       0.26666660       0.05332084 </v>
   <v>       0.53333340       0.46666660       0.05332084 </v>
   <v>       0.53333340       0.66666660       0.05332084 </v>
   <v>       0.53333340       0.86666660       0.05332084 </v>
   <v>       0.73333340       0.06666660       0.05332084 </v>
   <v>       0.73333340       0.26666660       0.05332084 </v>
   <v>       0.73333340       0.46666660       0.05332084 </v>
   <v>       0.73333340       0.66666660       0.05332084 </v>
   <v>       0.73333340       0.86666660       0.05332084 </v>
   <v>       0.93333340       0.06666660       0.05332084 </v>
   <v>       0.93333340       0.26666660       0.05332084 </v>
   <v>       0.93333340       0.46666660       0.05332084 </v>
   <v>       0.93333340       0.66666660       0.05332084 </v>
   <v>       0.93333340       0.86666660       0.05332084 </v>
   <v>       0.06666660       0.13333340       0.41233638 </v>
   <v>       0.06666660       0.33333340       0.41233638 </v>
   <v>       0.06666660       0.53333340       0.41233638 </v>
   <v>       0.06666660       0.73333340       0.41233638 </v>
   <v>       0.06666660       0.93333340       0.41233638 </v>
   <v>       0.26666660       0.13333340       0.41233638 </v>
   <v>       0.26666660       0.33333340       0.41233638 </v>
   <v>       0.26666660       0.53333340       0.41233638 </v>
   <v>       0.26666660       0.73333340       0.41233638 </v>
   <v>       0.26666660       0.93333340       0.41233638 </v>
   <v>       0.46666660       0.13333340       0.41233638 </v>
   <v>       0.46666660       0.33333340       0.41233638 </v>
   <v>       0.46666660       0.53333340       0.41233638 </v>
   <v>       0.46666660       0.73333340       0.41233638 </v>
   <v>       0.46666660       0.93333340       0.41233638 </v>
   <v>       0.66666660       0.13333340       0.41233638 </v>
   <v>       0.66666660       0.33333340       0.41233638 </v>
   <v>       0.66666660       0.53333340       0.41233638 </v>
   <v>       0.66666660       0.73333340       0.41233638 </v>
   <v>       0.66666660       0.93333340       0.41233638 </v>
   <v>       0.86666660       0.13333340       0.41233638 </v>
   <v>       0.86666660       0.33333340       0.41233638 </v>
   <v>       0.86666660       0.53333340       0.41233638 </v>
   <v>       0.86666660       0.73333340       0.41233638 </v>
   <v>       0.86666660       0.93333340       0.41233638 </v>
   <v>       0.06666660       0.13333340      -0.00148373 </v>
   <v>       0.06666660       0.33333340      -0.00148373 </v>
   <v>       0.06666660       0.53333340      -0.00148373 </v>
   <v>       0.06666660       0.73333340      -0.00148373 </v>
   <v>       0.06666660       0.93333340      -0.00148373 </v>
   <v>       0.26666660       0.13333340      -0.00148373 </v>
   <v>       0.26666660       0.33333340      -0.00148373 </v>
   <v>       0.26666660       0.53333340      -0.00148373 </v>
   <v>       0.26666660       0.73333340      -0.00148373 </v>
   <v>       0.26666660       0.93333340      -0.00148373 </v>
   <v>       0.46666660       0.13333340      -0.00148373 </v>
   <v>       0.46666660       0.33333340      -0.00148373 </v>
   <v>       0.46666660       0.53333340      -0.00148373 </v>
   <v>       0.46666660       0.73333340      -0.00148373 </v>
   <v>       0.46666660       0.93333340      -0.00148373 </v>
   <v>       0.66666660       0.13333340      -0.00148373 </v>
   <v>       0.66666660       0.33333340      -0.00148373 </v>
   <v>       0.66666660       0.53333340      -0.00148373 </v>
   <v>       0.66666660       0.73333340      -0.00148373 </v>
   <v>       0.66666660       0.93333340      -0.00148373 </v>
   <v>       0.86666660       0.13333340      -0.00148373 </v>
   <v>       0.86666660       0.33333340      -0.00148373 </v>
   <v>       0.86666660       0.53333340      -0.00148373 </v>
   <v>       0.86666660       0.73333340      -0.00148373 </v>
   <v>       0.86666660       0.93333340      -0.00148373 </v>
   <v>       0.13333340       0.06666660       0.46748883 </v>
   <v>       0.13333340       0.26666660       0.46748883 </v>
   <v>       0.13333340       0.46666660       0.46748883 </v>
   <v>       0.13333340       0.66666660       0.46748883 </v>
   <v>       0.13333340       0.86666660       0.46748883 </v>
   <v>       0.33333340       0.06666660       0.46748883 </v>
   <v>       0.33333340       0.26666660       0.46748883 </v>
   <v>       0.33333340       0.46666660       0.46748883 </v>
   <v>       0.33333340       0.66666660       0.46748883 </v>
   <v>       0.33333340       0.86666660       0.46748883 </v>
   <v>       0.53333340       0.06666660       0.46748883 </v>
   <v>       0.53333340       0.26666660       0.46748883 </v>
   <v>       0.53333340       0.46666660       0.46748883 </v>
   <v>       0.53333340       0.66666660       0.46748883 </v>
   <v>       0.53333340       0.86666660       0.46748883 </v>
   <v>       0.73333340       0.06666660       0.46748883 </v>
   <v>       0.73333340       0.26666660       0.46748883 </v>
   <v>       0.73333340       0.46666660       0.46748883 </v>
   <v>       0.73333340       0.66666660       0.46748883 </v>
   <v>       0.73333340       0.86666660       0.46748883 </v>
   <v>       0.93333340       0.06666660       0.46748883 </v>
   <v>       0.93333340       0.26666660       0.46748883 </v>
   <v>       0.93333340       0.46666660       0.46748883 </v>
   <v>       0.93333340       0.66666660       0.46748883 </v>
   <v>       0.93333340       0.86666660       0.46748883 </v>
   <v>       0.06666660       0.13333340       0.11441544 </v>
   <v>       0.06666660       0.33333340       0.11441544 </v>
   <v>       0.06666660       0.53333340       0.11441544 </v>
   <v>       0.06666660       0.73333340       0.11441544 </v>
   <v>       0.06666660       0.93333340       0.11441544 </v>
   <v>       0.26666660       0.13333340       0.11441544 </v>
   <v>       0.26666660       0.33333340       0.11441544 </v>
   <v>       0.26666660       0.53333340       0.11441544 </v>
   <v>       0.26666660       0.73333340       0.11441544 </v>
   <v>       0.26666660       0.93333340       0.11441544 </v>
   <v>       0.46666660       0.13333340       0.11441544 </v>
   <v>       0.46666660       0.33333340       0.11441544 </v>
   <v>       0.46666660       0.53333340       0.11441544 </v>
   <v>       0.46666660       0.73333340       0.11441544 </v>
   <v>       0.46666660       0.93333340       0.11441544 </v>
   <v>       0.66666660       0.13333340       0.11441544 </v>
   <v>       0.66666660       0.33333340       0.11441544 </v>
   <v>       0.66666660       0.53333340       0.11441544 </v>
   <v>       0.66666660       0.73333340       0.11441544 </v>
   <v>       0.66666660       0.93333340       0.11441544 </v>
   <v>       0.86666660       0.13333340       0.11441544 </v>
   <v>       0.86666660       0.33333340       0.11441544 </v>
   <v>       0.86666660       0.53333340       0.11441544 </v>
   <v>       0.86666660       0.73333340       0.11441544 </v>
   <v>       0.86666660       0.93333340       0.11441544 </v>
   <v>       0.13333340       0.06666660       0.35088824 </v>
   <v>       0.13333340       0.26666660       0.35088824 </v>
   <v>       0.13333340       0.46666660       0.35088824 </v>
   <v>       0.13333340       0.66666660       0.35088824 </v>
   <v>       0.13333340       0.86666660       0.35088824 </v>
   <v>       0.33333340       0.06666660       0.35088824 </v>
   <v>       0.33333340       0.26666660       0.35088824 </v>
   <v>       0.33333340       0.46666660       0.35088824 </v>
   <v>       0.33333340       0.66666660       0.35088824 </v>
   <v>       0.33333340       0.86666660       0.35088824 </v>
   <v>       0.53333340       0.06666660       0.35088824 </v>
   <v>       0.53333340       0.26666660       0.35088824 </v>
   <v>       0.53333340       0.46666660       0.35088824 </v>
   <v>       0.53333340       0.66666660       0.35088824 </v>
   <v>       0.53333340       0.86666660       0.35088824 </v>
   <v>       0.73333340       0.06666660       0.35088824 </v>
   <v>       0.73333340       0.26666660       0.35088824 </v>
   <v>       0.73333340       0.46666660       0.35088824 </v>
   <v>       0.73333340       0.66666660       0.35088824 </v>
   <v>       0.73333340       0.86666660       0.35088824 </v>
   <v>       0.93333340       0.06666660       0.35088824 </v>
   <v>       0.93333340       0.26666660       0.35088824 </v>
   <v>       0.93333340       0.46666660       0.35088824 </v>
   <v>       0.93333340       0.66666660       0.35088824 </v>
   <v>       0.93333340       0.86666660       0.35088824 </v>
  </varray>
 </structure>
</modeling>
