 running on    8 total cores
 distrk:  each k-point on    8 cores,    1 groups
 distr:  one band on    1 cores,    8 groups
 using from now: INCAR     
 vasp.5.4.1 05Feb16 (build Feb 01 2017 11:38:15) complex                        
  
 POSCAR found type information on POSCAR  Mo S 
 POSCAR found :  2 types and       3 ions
 scaLAPACK will be used

 ----------------------------------------------------------------------------- 
|                                                                             |
|           W    W    AA    RRRRR   N    N  II  N    N   GGGG   !!!           |
|           W    W   A  A   R    R  NN   N  II  NN   N  G    G  !!!           |
|           W    W  A    A  R    R  N N  N  II  N N  N  G       !!!           |
|           W WW W  AAAAAA  RRRRR   N  N N  II  N  N N  G  GGG   !            |
|           WW  WW  A    A  R   R   N   NN  II  N   NN  G    G                |
|           W    W  A    A  R    R  N    N  II  N    N   GGGG   !!!           |
|                                                                             |
|      For optimal performance we recommend to set                            |
|        NCORE= 4 - approx SQRT( number of cores)                             |
|      NCORE specifies how many cores store one orbital (NPAR=cpu/NCORE).     |
|      This setting can  greatly improve the performance of VASP for DFT.     |
|      The default, NPAR=number of cores might be grossly inefficient         |
|      on modern multi-core architectures or massively parallel machines.     |
|      Do your own testing !!!!                                               |
|      Unfortunately you need to use the default for GW and RPA calculations. |
|      (for HF NCORE is supported but not extensively tested yet)             |
|                                                                             |
 ----------------------------------------------------------------------------- 

 LDA part: xc-table for Pade appr. of Perdew
 POSCAR, INCAR and KPOINTS ok, starting setup
 FFT: planning ...
 WAVECAR not read
 entering main loop
       N       E                     dE             d eps       ncg     rms          ort
DAV:   1     0.208348223063E+03    0.20835E+03   -0.10482E+04  5760   0.102E+03
DAV:   2     0.396749191069E+01   -0.20438E+03   -0.19425E+03  5760   0.233E+02
DAV:   3    -0.205752432729E+02   -0.24543E+02   -0.24039E+02  5760   0.768E+01
DAV:   4    -0.214954103854E+02   -0.92017E+00   -0.91652E+00  5760   0.175E+01
DAV:   5    -0.215231681012E+02   -0.27758E-01   -0.27748E-01  5760   0.298E+00
 gam= 0.000 g(H,U,f)=  0.122E+02 0.144E+02 0.513E-11 ort(H,U,f) = 0.000E+00 0.000E+00 0.000E+00
SDA:   6    -0.169030066086E+02    0.46202E+01   -0.27748E-01  5760   0.266E+02 0.000E+00
 gam= 0.000 trial= 0.400  step= 0.295 mean= 0.400
 gam= 0.101 g(H,U,f)=  0.193E+01 0.776E+00 0.348E-05 ort(H,U,f) =-0.209E+01 0.162E+01-0.531E-05
CGA:   7    -0.209916019906E+02   -0.40886E+01   -0.39345E+01  5760   0.270E+01-0.470E+00
 gam= 0.101 trial= 0.395  step= 0.347 mean= 0.395
 gam= 0.361 g(H,U,f)=  0.831E+00 0.144E+00 0.107E-08 ort(H,U,f) =-0.491E-01 0.507E-01 0.710E-09
CGA:   8    -0.214519986399E+02   -0.46040E+00   -0.46025E+00  5760   0.974E+00 0.166E-02
 gam= 0.361 trial= 0.392  step= 0.379 mean= 0.392
 gam= 0.361 g(H,U,f)=  0.310E+00 0.416E-01 0.216E-16 ort(H,U,f) =-0.845E-01 0.876E-01 0.328E-16
CGA:   9    -0.216370081622E+02   -0.18501E+00   -0.18500E+00  5760   0.352E+00 0.307E-02
 gam= 0.361 trial= 0.392  step= 0.348 mean= 0.392
 gam= 0.387 g(H,U,f)=  0.108E+00 0.286E-01 0.634E-19 ort(H,U,f) =-0.197E-01 0.189E-01 0.364E-18
CGA:  10    -0.216984783443E+02   -0.61470E-01   -0.61413E-01  5760   0.136E+00-0.811E-03
 gam= 0.387 trial= 0.390  step= 0.418 mean= 0.390
 gam= 0.280 g(H,U,f)=  0.344E-01 0.375E-02 0.667E-12 ort(H,U,f) =-0.108E-01 0.108E-01 0.162E-11
CGA:  11    -0.217268843854E+02   -0.28406E-01   -0.28406E-01  5760   0.381E-01 0.414E-04
 gam= 0.280 trial= 0.391  step= 0.435 mean= 0.391
 gam= 0.455 g(H,U,f)=  0.142E-01 0.314E-02 0.152E-16 ort(H,U,f) =-0.372E-02 0.372E-02 0.315E-16
CGA:  12    -0.217351793608E+02   -0.82950E-02   -0.82942E-02  5760   0.174E-01 0.264E-05
 gam= 0.455 trial= 0.393  step= 0.487 mean= 0.393
 gam= 0.392 g(H,U,f)=  0.537E-02 0.144E-02 0.155E-20 ort(H,U,f) =-0.203E-02 0.200E-02 0.120E-19
CGA:  13    -0.217394099549E+02   -0.42306E-02   -0.42303E-02  5760   0.681E-02-0.277E-04
 gam= 0.392 trial= 0.398  step= 0.470 mean= 0.398
 gam= 0.414 g(H,U,f)=  0.219E-02 0.628E-03 0.175E-21 ort(H,U,f) =-0.491E-03 0.525E-03 0.118E-20
CGA:  14    -0.217410052216E+02   -0.15953E-02   -0.15968E-02  5760   0.282E-02 0.349E-04
 gam= 0.414 trial= 0.401  step= 0.471 mean= 0.401
 gam= 0.357 g(H,U,f)=  0.779E-03 0.226E-03 0.830E-21 ort(H,U,f) =-0.288E-03 0.346E-03-0.428E-20
CGA:  15    -0.217416748482E+02   -0.66963E-03   -0.66709E-03  5760   0.101E-02 0.581E-04
 gam= 0.357 trial= 0.405  step= 0.591 mean= 0.405
 gam= 0.488 g(H,U,f)=  0.388E-03 0.102E-03 0.108E-18 ort(H,U,f) =-0.172E-03 0.195E-03-0.457E-18
CGA:  16    -0.217419809590E+02   -0.30611E-03   -0.30337E-03  5760   0.491E-03 0.230E-04
 gam= 0.488 trial= 0.414  step= 0.624 mean= 0.414
 gam= 0.461 g(H,U,f)=  0.183E-03 0.430E-04 0.205E-14 ort(H,U,f) =-0.877E-04 0.963E-04-0.211E-14
CGA:  17    -0.217421385979E+02   -0.15764E-03   -0.15647E-03  5760   0.226E-03 0.861E-05
 gam= 0.461 trial= 0.425  step= 0.681 mean= 0.425
 gam= 0.416 g(H,U,f)=  0.841E-04 0.988E-05 0.526E-14 ort(H,U,f) =-0.325E-04 0.351E-04-0.359E-14
CGA:  18    -0.217422173391E+02   -0.78741E-04   -0.78324E-04  5760   0.940E-04 0.262E-05
 gam= 0.416 trial= 0.438  step= 0.656 mean= 0.438
 gam= 0.369 g(H,U,f)=  0.311E-04 0.357E-05 0.972E-14 ort(H,U,f) =-0.102E-04 0.103E-04 0.815E-14
CGA:  19    -0.217422485367E+02   -0.31198E-04   -0.31180E-04  5760   0.347E-04 0.831E-07
 gam= 0.369 trial= 0.448  step= 0.683 mean= 0.448
 gam= 0.387 g(H,U,f)=  0.110E-04 0.240E-05 0.508E-26 ort(H,U,f) =-0.308E-05 0.210E-05 0.212E-25
CGA:  20    -0.217422602723E+02   -0.11736E-04   -0.11849E-04  5760   0.134E-04-0.981E-06
 gam= 0.387 trial= 0.460  step= 0.601 mean= 0.460
 gam= 0.504 g(H,U,f)=  0.449E-05 0.227E-05 0.909E-25 ort(H,U,f) =-0.416E-06-0.174E-06 0.360E-24
CGA:  21    -0.217422641513E+02   -0.38790E-05   -0.39213E-05  5760   0.677E-05-0.590E-06
 gam= 0.504 trial= 0.467  step= 0.452 mean= 0.467
 gam= 0.432 g(H,U,f)=  0.212E-05 0.800E-06 0.427E-24 ort(H,U,f) = 0.231E-06-0.285E-06-0.113E-23
CGA:  22    -0.217422656132E+02   -0.14619E-05   -0.14622E-05  5760   0.292E-05-0.546E-07
 gam= 0.432 trial= 0.466  step= 0.512 mean= 0.466
 gam= 0.286 g(H,U,f)=  0.719E-06 0.117E-06 0.115E-23 ort(H,U,f) = 0.106E-06 0.842E-07 0.284E-23
CGA:  23    -0.217422663578E+02   -0.74459E-06   -0.74108E-06  5760   0.835E-06 0.190E-06
 gam= 0.286 trial= 0.469  step= 0.583 mean= 0.469
 gam= 0.289 g(H,U,f)=  0.214E-06 0.276E-07 0.217E-22 ort(H,U,f) = 0.108E-06 0.429E-07 0.137E-22
CGA:  24    -0.217422666249E+02   -0.26706E-06   -0.25932E-06  5760   0.241E-06 0.151E-06
 gam= 0.289 trial= 0.474  step= 0.547 mean= 0.474
 gam= 0.409 g(H,U,f)=  0.704E-07 0.283E-07 0.223E-21 ort(H,U,f) = 0.529E-07 0.965E-08 0.220E-21
CGA:  25    -0.217422667042E+02   -0.79293E-07   -0.77867E-07  5760   0.987E-07 0.626E-07
 gam= 0.409 trial= 0.478  step= 0.462 mean= 0.478
   1 F= -.21742267E+02 E0= -.21742267E+02  d E =-.282840E-17  mag=     0.0000     0.0000     0.0000
 writing wavefunctions
