<?xml version="1.0" encoding="ISO-8859-1"?>
<modeling>
 <generator>
  <i name="program" type="string">vasp </i>
  <i name="version" type="string">5.4.1  </i>
  <i name="subversion" type="string">05Feb16 (build Feb 01 2017 11:31:40) complex                          parallel </i>
  <i name="platform" type="string">IFC91_ompi </i>
  <i name="date" type="string">2025 10 21 </i>
  <i name="time" type="string">16:33:50 </i>
 </generator>
 <incar>
  <i type="string" name="SYSTEM"> MoS2 monolayer SCF-highres (SOC OFF)</i>
  <i type="int" name="ISTART">     1</i>
  <i type="string" name="PREC">accurate</i>
  <i type="string" name="ALGO"> Normal</i>
  <i type="logical" name="LSORBIT"> F  </i>
  <i type="logical" name="LNONCOLLINEAR"> F  </i>
  <i type="int" name="ISPIN">     2</i>
  <i type="int" name="ICHARG">    11</i>
  <i type="int" name="NELM">   200</i>
  <i type="int" name="IBRION">    -1</i>
  <i name="EDIFF">      0.00000010</i>
  <i type="int" name="NSW">     0</i>
  <i type="int" name="ISIF">     2</i>
  <i name="ENCUT">    600.00000000</i>
  <i type="int" name="NEDOS">  5000</i>
  <i type="logical" name="LREAL"> F  </i>
  <i type="int" name="ISMEAR">     0</i>
  <i name="SIGMA">      0.05000000</i>
  <i type="logical" name="LWAVE"> T  </i>
  <i type="logical" name="LCHARG"> T  </i>
  <v type="int" name="KPOINT_BSE">    -1     0     0     0</v>
  <i type="int" name="NELM">   200</i>
  <i type="logical" name="LDIPOL"> T  </i>
  <i type="int" name="IDIPOL">     3</i>
  <v name="DIPOL">      0.50000000      0.50000000      0.50000000</v>
 </incar>
 <kpoints>
  <generation param="Gamma">
   <v type="int" name="divisions">      24       24        1 </v>
   <v name="usershift">      0.00000000       0.00000000       0.00000000 </v>
   <v name="genvec1">      0.04166667       0.00000000       0.00000000 </v>
   <v name="genvec2">      0.00000000       0.04166667       0.00000000 </v>
   <v name="genvec3">      0.00000000       0.00000000       1.00000000 </v>
   <v name="shift">      0.00000000       0.00000000       0.00000000 </v>
  </generation>
  <varray name="kpointlist" >
   <v>       0.00000000       0.00000000       0.00000000 </v>
   <v>       0.04166667       0.00000000       0.00000000 </v>
   <v>       0.08333333       0.00000000       0.00000000 </v>
   <v>       0.12500000       0.00000000       0.00000000 </v>
   <v>       0.16666667       0.00000000       0.00000000 </v>
   <v>       0.20833333       0.00000000       0.00000000 </v>
   <v>       0.25000000       0.00000000       0.00000000 </v>
   <v>       0.29166667       0.00000000       0.00000000 </v>
   <v>       0.33333333       0.00000000       0.00000000 </v>
   <v>       0.37500000       0.00000000       0.00000000 </v>
   <v>       0.41666667       0.00000000       0.00000000 </v>
   <v>       0.45833333       0.00000000       0.00000000 </v>
   <v>       0.50000000       0.00000000       0.00000000 </v>
   <v>       0.04166667       0.04166667       0.00000000 </v>
   <v>       0.08333333       0.04166667       0.00000000 </v>
   <v>       0.12500000       0.04166667       0.00000000 </v>
   <v>       0.16666667       0.04166667       0.00000000 </v>
   <v>       0.20833333       0.04166667       0.00000000 </v>
   <v>       0.25000000       0.04166667       0.00000000 </v>
   <v>       0.29166667       0.04166667       0.00000000 </v>
   <v>       0.33333333       0.04166667       0.00000000 </v>
   <v>       0.37500000       0.04166667       0.00000000 </v>
   <v>       0.41666667       0.04166667       0.00000000 </v>
   <v>       0.45833333       0.04166667       0.00000000 </v>
   <v>       0.08333333       0.08333333       0.00000000 </v>
   <v>       0.12500000       0.08333333       0.00000000 </v>
   <v>       0.16666667       0.08333333       0.00000000 </v>
   <v>       0.20833333       0.08333333       0.00000000 </v>
   <v>       0.25000000       0.08333333       0.00000000 </v>
   <v>       0.29166667       0.08333333       0.00000000 </v>
   <v>       0.33333333       0.08333333       0.00000000 </v>
   <v>       0.37500000       0.08333333       0.00000000 </v>
   <v>       0.41666667       0.08333333       0.00000000 </v>
   <v>       0.45833333       0.08333333       0.00000000 </v>
   <v>       0.12500000       0.12500000       0.00000000 </v>
   <v>       0.16666667       0.12500000       0.00000000 </v>
   <v>       0.20833333       0.12500000       0.00000000 </v>
   <v>       0.25000000       0.12500000       0.00000000 </v>
   <v>       0.29166667       0.12500000       0.00000000 </v>
   <v>       0.33333333       0.12500000       0.00000000 </v>
   <v>       0.37500000       0.12500000       0.00000000 </v>
   <v>       0.41666667       0.12500000       0.00000000 </v>
   <v>       0.16666667       0.16666667       0.00000000 </v>
   <v>       0.20833333       0.16666667       0.00000000 </v>
   <v>       0.25000000       0.16666667       0.00000000 </v>
   <v>       0.29166667       0.16666667       0.00000000 </v>
   <v>       0.33333333       0.16666667       0.00000000 </v>
   <v>       0.37500000       0.16666667       0.00000000 </v>
   <v>       0.41666667       0.16666667       0.00000000 </v>
   <v>       0.20833333       0.20833333       0.00000000 </v>
   <v>       0.25000000       0.20833333       0.00000000 </v>
   <v>       0.29166667       0.20833333       0.00000000 </v>
   <v>       0.33333333       0.20833333       0.00000000 </v>
   <v>       0.37500000       0.20833333       0.00000000 </v>
   <v>       0.25000000       0.25000000       0.00000000 </v>
   <v>       0.29166667       0.25000000       0.00000000 </v>
   <v>       0.33333333       0.25000000       0.00000000 </v>
   <v>       0.37500000       0.25000000       0.00000000 </v>
   <v>       0.29166667       0.29166667       0.00000000 </v>
   <v>       0.33333333       0.29166667       0.00000000 </v>
   <v>       0.33333333       0.33333333       0.00000000 </v>
  </varray>
  <varray name="weights" >
   <v>       0.00173611 </v>
   <v>       0.01041667 </v>
   <v>       0.01041667 </v>
   <v>       0.01041667 </v>
   <v>       0.01041667 </v>
   <v>       0.01041667 </v>
   <v>       0.01041667 </v>
   <v>       0.01041667 </v>
   <v>       0.01041667 </v>
   <v>       0.01041667 </v>
   <v>       0.01041667 </v>
   <v>       0.01041667 </v>
   <v>       0.00520833 </v>
   <v>       0.01041667 </v>
   <v>       0.02083333 </v>
   <v>       0.02083333 </v>
   <v>       0.02083333 </v>
   <v>       0.02083333 </v>
   <v>       0.02083333 </v>
   <v>       0.02083333 </v>
   <v>       0.02083333 </v>
   <v>       0.02083333 </v>
   <v>       0.02083333 </v>
   <v>       0.02083333 </v>
   <v>       0.01041667 </v>
   <v>       0.02083333 </v>
   <v>       0.02083333 </v>
   <v>       0.02083333 </v>
   <v>       0.02083333 </v>
   <v>       0.02083333 </v>
   <v>       0.02083333 </v>
   <v>       0.02083333 </v>
   <v>       0.02083333 </v>
   <v>       0.01041667 </v>
   <v>       0.01041667 </v>
   <v>       0.02083333 </v>
   <v>       0.02083333 </v>
   <v>       0.02083333 </v>
   <v>       0.02083333 </v>
   <v>       0.02083333 </v>
   <v>       0.02083333 </v>
   <v>       0.02083333 </v>
   <v>       0.01041667 </v>
   <v>       0.02083333 </v>
   <v>       0.02083333 </v>
   <v>       0.02083333 </v>
   <v>       0.02083333 </v>
   <v>       0.02083333 </v>
   <v>       0.01041667 </v>
   <v>       0.01041667 </v>
   <v>       0.02083333 </v>
   <v>       0.02083333 </v>
   <v>       0.02083333 </v>
   <v>       0.02083333 </v>
   <v>       0.01041667 </v>
   <v>       0.02083333 </v>
   <v>       0.02083333 </v>
   <v>       0.01041667 </v>
   <v>       0.01041667 </v>
   <v>       0.02083333 </v>
   <v>       0.00347222 </v>
  </varray>
 </kpoints>
 <parameters>
  <separator name="general" >
   <i type="string" name="SYSTEM">MoS2 monolayer SCF-highres (SOC OFF)</i>
   <i type="logical" name="LCOMPAT"> F  </i>
  </separator>
  <separator name="electronic" >
   <i type="string" name="PREC">accura</i>
   <i name="ENMAX">    600.00000000</i>
   <i name="ENAUG">    392.42700000</i>
   <i name="EDIFF">      0.00000010</i>
   <i type="int" name="IALGO">    38</i>
   <i type="int" name="IWAVPR">    10</i>
   <i type="int" name="NBANDS">    24</i>
   <i name="NELECT">     24.00000000</i>
   <i type="int" name="TURBO">     0</i>
   <i type="int" name="IRESTART">     0</i>
   <i type="int" name="NREBOOT">     0</i>
   <i type="int" name="NMIN">     0</i>
   <i name="EREF">      0.00000000</i>
   <separator name="electronic smearing" >
    <i type="int" name="ISMEAR">     0</i>
    <i name="SIGMA">      0.05000000</i>
    <i name="KSPACING">      0.50000000</i>
    <i type="logical" name="KGAMMA"> T  </i>
   </separator>
   <separator name="electronic projectors" >
    <i type="logical" name="LREAL"> F  </i>
    <v name="ROPT">      0.00000000      0.00000000</v>
    <i type="int" name="LMAXPAW">  -100</i>
    <i type="int" name="LMAXMIX">     2</i>
    <i type="logical" name="NLSPLINE"> F  </i>
   </separator>
   <separator name="electronic startup" >
    <i type="int" name="ISTART">     1</i>
    <i type="int" name="ICHARG">    11</i>
    <i type="int" name="INIWAV">     1</i>
   </separator>
   <separator name="electronic spin" >
    <i type="int" name="ISPIN">     2</i>
    <i type="logical" name="LNONCOLLINEAR"> F  </i>
    <v name="MAGMOM">      1.00000000      1.00000000      1.00000000</v>
    <i name="NUPDOWN">     -1.00000000</i>
    <i type="logical" name="LSORBIT"> F  </i>
    <v name="SAXIS">      0.00000000      0.00000000      1.00000000</v>
    <i type="logical" name="LSPIRAL"> F  </i>
    <v name="QSPIRAL">      0.00000000      0.00000000      0.00000000</v>
    <i type="logical" name="LZEROZ"> F  </i>
   </separator>
   <separator name="electronic exchange-correlation" >
    <i type="logical" name="LASPH"> F  </i>
    <i type="logical" name="LMETAGGA"> F  </i>
   </separator>
   <separator name="electronic convergence" >
    <i type="int" name="NELM">   200</i>
    <i type="int" name="NELMDL">     0</i>
    <i type="int" name="NELMIN">     2</i>
    <i name="ENINI">    600.00000000</i>
    <separator name="electronic convergence detail" >
     <i type="logical" name="LDIAG"> T  </i>
     <i type="logical" name="LSUBROT"> F  </i>
     <i name="WEIMIN">      0.00000000</i>
     <i name="EBREAK">      0.00000000</i>
     <i name="DEPER">      0.30000000</i>
     <i type="int" name="NRMM">     4</i>
     <i name="TIME">      0.40000000</i>
    </separator>
   </separator>
   <separator name="electronic mixer" >
    <i name="AMIX">      0.40000000</i>
    <i name="BMIX">      1.00000000</i>
    <i name="AMIN">      0.10000000</i>
    <i name="AMIX_MAG">      1.60000000</i>
    <i name="BMIX_MAG">      1.00000000</i>
    <separator name="electronic mixer details" >
     <i type="int" name="IMIX">     4</i>
     <i type="logical" name="MIXFIRST"> F  </i>
     <i type="int" name="MAXMIX">   -45</i>
     <i name="WC">    100.00000000</i>
     <i type="int" name="INIMIX">     1</i>
     <i type="int" name="MIXPRE">     1</i>
     <i type="int" name="MREMOVE">     5</i>
    </separator>
   </separator>
   <separator name="electronic dipolcorrection" >
    <i type="logical" name="LDIPOL"> T  </i>
    <i type="logical" name="LMONO"> F  </i>
    <i type="int" name="IDIPOL">     3</i>
    <i name="EPSILON">      1.00000000</i>
    <v name="DIPOL">      0.50000000      0.50000000      0.50000000</v>
    <i name="EFIELD">      0.00000000</i>
   </separator>
  </separator>
  <separator name="grids" >
   <i type="int" name="NGX">    28</i>
   <i type="int" name="NGY">    28</i>
   <i type="int" name="NGZ">   280</i>
   <i type="int" name="NGXF">    56</i>
   <i type="int" name="NGYF">    56</i>
   <i type="int" name="NGZF">   560</i>
   <i type="logical" name="ADDGRID"> F  </i>
  </separator>
  <separator name="ionic" >
   <i type="int" name="NSW">     0</i>
   <i type="int" name="IBRION">    -1</i>
   <i type="int" name="ISIF">     2</i>
   <i name="PSTRESS">      0.00000000</i>
   <i name="EDIFFG">      0.00000100</i>
   <i type="int" name="NFREE">     0</i>
   <i name="POTIM">      0.50000000</i>
   <i name="SMASS">     -3.00000000</i>
   <i name="SCALEE">      1.00000000</i>
  </separator>
  <separator name="ionic md" >
   <i name="TEBEG">      0.00010000</i>
   <i name="TEEND">      0.00010000</i>
   <i type="int" name="NBLOCK">     1</i>
   <i type="int" name="KBLOCK">     1</i>
   <i type="int" name="NPACO">   256</i>
   <i name="APACO">     16.00000000</i>
  </separator>
  <separator name="symmetry" >
   <i type="int" name="ISYM">     2</i>
   <i name="SYMPREC">      0.00001000</i>
  </separator>
  <separator name="dos" >
   <i type="logical" name="LORBIT"> F  </i>
   <v name="RWIGS">     -1.00000000     -1.00000000</v>
   <i type="int" name="NEDOS">  5000</i>
   <i name="EMIN">     10.00000000</i>
   <i name="EMAX">    -10.00000000</i>
   <i name="EFERMI">      0.00000000</i>
  </separator>
  <separator name="writing" >
   <i type="int" name="NWRITE">     2</i>
   <i type="logical" name="LWAVE"> T  </i>
   <i type="logical" name="LCHARG"> T  </i>
   <i type="logical" name="LPARD"> F  </i>
   <i type="logical" name="LVTOT"> F  </i>
   <i type="logical" name="LVHAR"> F  </i>
   <i type="logical" name="LELF"> F  </i>
   <i type="logical" name="LOPTICS"> F  </i>
   <v name="STM">      0.00000000      0.00000000      0.00000000      0.00000000      0.00000000      0.00000000      0.00000000</v>
  </separator>
  <separator name="performance" >
   <i type="int" name="NPAR">     8</i>
   <i type="int" name="NSIM">     4</i>
   <i type="int" name="NBLK">    -1</i>
   <i type="logical" name="LPLANE"> T  </i>
   <i type="logical" name="LSCALAPACK"> T  </i>
   <i type="logical" name="LSCAAWARE"> F  </i>
   <i type="logical" name="LSCALU"> F  </i>
   <i type="logical" name="LASYNC"> F  </i>
   <i type="logical" name="LORBITALREAL"> F  </i>
  </separator>
  <separator name="miscellaneous" >
   <i type="int" name="IDIOT">     3</i>
   <i type="logical" name="LMUSIC"> F  </i>
   <v name="POMASS">     95.94000000     32.06600000</v>
   <v name="DARWINR">      0.00000000      0.00000000</v>
   <v name="DARWINV">      1.00000000      1.00000000</v>
   <i type="logical" name="LCORR"> T  </i>
  </separator>
  <i type="logical" name="GGA_COMPAT"> T  </i>
  <i type="logical" name="LBERRY"> F  </i>
  <i type="int" name="ICORELEVEL">     0</i>
  <i type="logical" name="LDAU"> F  </i>
  <i type="int" name="I_CONSTRAINED_M">     0</i>
  <separator name="electronic exchange-correlation" >
   <i type="string" name="GGA">--</i>
   <i type="int" name="VOSKOWN">     0</i>
   <i type="logical" name="LHFCALC"> F  </i>
   <i type="string" name="PRECFOCK"></i>
   <i type="logical" name="LSYMGRAD"> F  </i>
   <i type="logical" name="LHFONE"> F  </i>
   <i type="logical" name="LRHFCALC"> F  </i>
   <i type="logical" name="LTHOMAS"> F  </i>
   <i type="logical" name="LMODELHF"> F  </i>
   <i name="ENCUT4O">     -1.00000000</i>
   <i type="int" name="EXXOEP">     0</i>
   <i type="int" name="FOURORBIT">     0</i>
   <i name="AEXX">      0.00000000</i>
   <i name="HFALPHA">      0.00000000</i>
   <i name="MCALPHA">      0.00000000</i>
   <i name="ALDAX">      1.00000000</i>
   <i name="AGGAX">      1.00000000</i>
   <i name="ALDAC">      1.00000000</i>
   <i name="AGGAC">      1.00000000</i>
   <i type="int" name="NKREDX">     1</i>
   <i type="int" name="NKREDY">     1</i>
   <i type="int" name="NKREDZ">     1</i>
   <i type="logical" name="SHIFTRED"> F  </i>
   <i type="logical" name="ODDONLY"> F  </i>
   <i type="logical" name="EVENONLY"> F  </i>
   <i type="int" name="LMAXFOCK">     0</i>
   <i type="int" name="NMAXFOCKAE">     0</i>
   <i type="logical" name="LFOCKAEDFT"> F  </i>
   <i name="HFSCREEN">      0.00000000</i>
   <i name="HFSCREENC">      0.00000000</i>
   <i type="int" name="NBANDSGWLOW">     0</i>
  </separator>
  <separator name="vdW DFT" >
   <i type="logical" name="LUSE_VDW"> F  </i>
   <i name="Zab_VDW">     -0.84910000</i>
   <i name="PARAM1">      0.12340000</i>
   <i name="PARAM2">      1.00000000</i>
   <i name="PARAM3">      0.00000000</i>
  </separator>
  <separator name="model GW" >
   <i type="int" name="MODEL_GW">     0</i>
   <i name="MODEL_EPS0">     60.63764212</i>
   <i name="MODEL_ALPHA">      1.00000000</i>
  </separator>
  <separator name="linear response parameters" >
   <i type="logical" name="LEPSILON"> F  </i>
   <i type="logical" name="LRPA"> F  </i>
   <i type="logical" name="LNABLA"> F  </i>
   <i type="logical" name="LVEL"> F  </i>
   <i type="int" name="KINTER">     0</i>
   <i name="CSHIFT">      0.10000000</i>
   <i name="OMEGAMAX">     -1.00000000</i>
   <i name="DEG_THRESHOLD">      0.00200000</i>
  </separator>
  <separator name="orbital magnetization" >
   <i type="logical" name="NUCIND"> F  </i>
   <v name="MAGPOS">      0.00000000      0.00000000      0.00000000</v>
   <i type="logical" name="LNICSALL"> T  </i>
   <i type="logical" name="ORBITALMAG"> F  </i>
   <i type="logical" name="LMAGBLOCH"> F  </i>
   <i type="logical" name="LCHIMAG"> F  </i>
   <i type="logical" name="LGAUGE"> T  </i>
   <i type="int" name="MAGATOM">     0</i>
   <v name="MAGDIPOL">      0.00000000      0.00000000      0.00000000</v>
   <v name="AVECCONST">      0.00000000      0.00000000      0.00000000</v>
  </separator>
  <separator name="response functions" >
   <i type="logical" name="LADDER"> F  </i>
   <i type="logical" name="LFXC"> F  </i>
   <i type="logical" name="LHARTREE"> T  </i>
   <i type="int" name="IBSE">     0</i>
   <v type="int" name="KPOINT">    -1     0     0     0</v>
   <i type="logical" name="LTCTE"> F  </i>
   <i type="logical" name="LTETE"> F  </i>
   <i type="logical" name="LTRIPLET"> F  </i>
   <i type="logical" name="LFXCEPS"> F  </i>
   <i type="logical" name="LFXHEG"> F  </i>
   <i type="int" name="NATURALO">     0</i>
   <i type="logical" name="L2ORDER"> F  </i>
   <i type="logical" name="LUSEW"> F  </i>
   <i name="ENCUTGW">     -2.00000000</i>
   <i name="ENCUTGWSOFT">     -2.00000000</i>
   <i name="ENCUTLF">     -1.00000000</i>
   <i type="int" name="LMAXMP2">    -1</i>
   <i name="SCISSOR">      0.00000000</i>
   <i type="int" name="NOMEGA">     0</i>
   <i type="int" name="NOMEGAR">     0</i>
   <i type="int" name="NBANDSGW">    -1</i>
   <i type="int" name="NBANDSO">    -1</i>
   <i type="int" name="NBANDSV">    -1</i>
   <i type="int" name="NELM">   200</i>
   <i type="int" name="NELMHF">     1</i>
   <i type="int" name="DIM">     3</i>
   <i type="int" name="ANTIRES">     0</i>
   <i name="OMEGAMAX">    -30.00000000</i>
   <i name="OMEGAMIN">    -30.00000000</i>
   <i name="OMEGATL">   -200.00000000</i>
   <i type="int" name="OMEGAGRID">     0</i>
   <i name="CSHIFT">     -0.10000000</i>
   <i type="logical" name="SELFENERGY"> F  </i>
   <i type="logical" name="LSPECTRAL"> F  </i>
   <i type="logical" name="LSPECTRALGW"> F  </i>
   <i type="logical" name="LSINGLES"> F  </i>
   <i type="logical" name="LFERMIGW"> F  </i>
   <i type="logical" name="ODDONLYGW"> F  </i>
   <i type="logical" name="EVENONLYGW"> F  </i>
   <i type="int" name="NKREDLFX">     1</i>
   <i type="int" name="NKREDLFY">     1</i>
   <i type="int" name="NKREDLFZ">     1</i>
   <i type="int" name="MAXMEM">  1800</i>
   <i type="int" name="TELESCOPE">     0</i>
   <i type="int" name="TAUPAR">     1</i>
   <i type="int" name="OMEGAPAR">    -1</i>
   <i name="LAMBDA">      1.00000000</i>
  </separator>
  <separator name="External order field" >
   <i name="OFIELD_KAPPA">      0.00000000</i>
   <v name="OFIELD_K">      0.00000000      0.00000000      0.00000000</v>
   <i name="OFIELD_Q6_NEAR">      0.00000000</i>
   <i name="OFIELD_Q6_FAR">      0.00000000</i>
   <i name="OFIELD_A">      0.00000000</i>
  </separator>
  <separator name="solvation model" >
   <i type="logical" name="LSOL"> F  </i>
  </separator>
 </parameters>
 <atominfo>
  <atoms>       3 </atoms>
  <types>       2 </types>
  <array name="atoms" >
   <dimension dim="1">ion</dimension>
   <field type="string">element</field>
   <field type="int">atomtype</field>
   <set>
    <rc><c>Mo</c><c>   1</c></rc>
    <rc><c>S </c><c>   2</c></rc>
    <rc><c>S </c><c>   2</c></rc>
   </set>
  </array>
  <array name="atomtypes" >
   <dimension dim="1">type</dimension>
   <field type="int">atomspertype</field>
   <field type="string">element</field>
   <field>mass</field>
   <field>valence</field>
   <field type="string">pseudopotential</field>
   <set>
    <rc><c>   1</c><c>Mo</c><c>     95.94000000</c><c>     12.00000000</c><c> PAW_PBE Mo_pv 08Apr2002                </c></rc>
    <rc><c>   2</c><c>S </c><c>     32.06600000</c><c>      6.00000000</c><c>  PAW_PBE S 17Jan2003                   </c></rc>
   </set>
  </array>
 </atominfo>
 <structure name="initialpos" >
  <crystal>
   <varray name="basis" >
    <v>       1.58218970      -2.74043224       0.00000000 </v>
    <v>       1.58218970       2.74043224       0.00000000 </v>
    <v>       0.00000000       0.00000000      34.96267827 </v>
   </varray>
   <i name="volume">    303.18821061 </i>
   <varray name="rec_basis" >
    <v>       0.31601773      -0.18245297       0.00000000 </v>
    <v>       0.31601773       0.18245297       0.00000000 </v>
    <v>       0.00000000       0.00000000       0.02860193 </v>
   </varray>
  </crystal>
  <varray name="positions" >
   <v>       0.66666700       0.33333300       0.10664700 </v>
   <v>       0.33333300       0.66666700       0.06198962 </v>
   <v>       0.33333300       0.66666700       0.15130538 </v>
  </varray>
 </structure>
 <calculation>
  <scstep>
   <time name="dav">   16.61   16.87</time>
   <time name="total">   16.98   17.25</time>
   <dipole>
    <v name="dipole">      0.00000000       0.00000000       0.25027544 </v>
    <i name="Tr[quadrupol]">    -53.47020817 </i>
    <i name="Echarged">      0.00000000 </i>
    <i name="Edipol_quadrupol">      0.00000000 </i>
    <i name="Eion">      0.00000000 </i>
   </dipole>
   <energy>
    <i name="alphaZ">     66.80138606 </i>
    <i name="ewald">  12079.28848830 </i>
    <i name="hartreedc"> -13648.55602366 </i>
    <i name="XCdc">     62.12849038 </i>
    <i name="pawpsdc">   1174.71052184 </i>
    <i name="pawaedc">  -1153.71910284 </i>
    <i name="eentropy">     -0.00000000 </i>
    <i name="bandstr">   -440.29691490 </i>
    <i name="atom">   1837.94417650 </i>
    <i name="e_fr_energy">    -21.69897832 </i>
    <i name="e_wo_entrp">    -21.69897832 </i>
    <i name="e_0_energy">    -21.69897832 </i>
   </energy>
  </scstep>
  <scstep>
   <time name="dav">   15.72   15.75</time>
   <time name="total">   15.72   15.76</time>
   <dipole>
    <v name="dipole">      0.00000000       0.00000000       0.25027544 </v>
    <i name="Tr[quadrupol]">    -53.47020817 </i>
    <i name="Echarged">      0.00000000 </i>
    <i name="Edipol_quadrupol">      0.00000000 </i>
    <i name="Eion">      0.00000000 </i>
   </dipole>
   <energy>
    <i name="e_fr_energy">    -21.69897861 </i>
    <i name="e_wo_entrp">    -21.69897861 </i>
    <i name="e_0_energy">    -21.69897861 </i>
   </energy>
  </scstep>
  <scstep>
   <time name="dav">   13.63   13.64</time>
   <time name="total">   13.64   13.65</time>
   <dipole>
    <v name="dipole">      0.00000000       0.00000000       0.25027544 </v>
    <i name="Tr[quadrupol]">    -53.47020817 </i>
    <i name="Echarged">      0.00000000 </i>
    <i name="Edipol_quadrupol">      0.00000000 </i>
    <i name="Eion">      0.00000000 </i>
   </dipole>
   <energy>
    <i name="alphaZ">     66.80138606 </i>
    <i name="ewald">  12079.28848830 </i>
    <i name="hartreedc"> -13648.55602366 </i>
    <i name="XCdc">     62.12849038 </i>
    <i name="pawpsdc">   1174.71052184 </i>
    <i name="pawaedc">  -1153.71910284 </i>
    <i name="eentropy">     -0.00000000 </i>
    <i name="bandstr">   -440.29691520 </i>
    <i name="atom">   1837.94417650 </i>
    <i name="e_fr_energy">    -21.69897862 </i>
    <i name="e_wo_entrp">    -21.69897862 </i>
    <i name="e_0_energy">    -21.69897862 </i>
   </energy>
  </scstep>
  <structure>
   <crystal>
    <varray name="basis" >
     <v>       1.58218970      -2.74043224       0.00000000 </v>
     <v>       1.58218970       2.74043224       0.00000000 </v>
     <v>       0.00000000       0.00000000      34.96267827 </v>
    </varray>
    <i name="volume">    303.18821061 </i>
    <varray name="rec_basis" >
     <v>       0.31601773      -0.18245297       0.00000000 </v>
     <v>       0.31601773       0.18245297       0.00000000 </v>
     <v>       0.00000000       0.00000000       0.02860193 </v>
    </varray>
   </crystal>
   <varray name="positions" >
    <v>       0.66666700       0.33333300       0.10664700 </v>
    <v>       0.33333300       0.66666700       0.06198962 </v>
    <v>       0.33333300       0.66666700       0.15130538 </v>
   </varray>
  </structure>
  <varray name="forces" >
   <v>      -0.00000000       0.00000000      -0.00000000 </v>
   <v>       0.00000000      -0.00000000      -0.20253356 </v>
   <v>       0.00000000       0.00000000       0.20253356 </v>
  </varray>
  <varray name="stress" >
   <v>       5.41958354       0.00000000       0.00000000 </v>
   <v>       0.00000000       5.41958078       0.00000000 </v>
   <v>       0.00000000       0.00000000       5.54748164 </v>
  </varray>
  <energy>
   <i name="e_fr_energy">    -21.69897862 </i>
   <i name="e_wo_entrp">    -21.69897862 </i>
   <i name="e_0_energy">     -0.00000000 </i>
  </energy>
  <time name="totalsc">   59.13   59.49</time>
  <eigenvalues>
   <array>
    <dimension dim="1">band</dimension>
    <dimension dim="2">kpoint</dimension>
    <dimension dim="3">spin</dimension>
    <field>eigene</field>
    <field>occ</field>
    <set>
     <set comment="spin 1">
      <set comment="kpoint 1">
       <r>  -40.8511    1.0000 </r>
       <r>  -40.6298    1.0000 </r>
       <r>  -40.6298    1.0000 </r>
       <r>  -20.0143    1.0000 </r>
       <r>  -18.6228    1.0000 </r>
       <r>  -11.5029    1.0000 </r>
       <r>   -8.4419    1.0000 </r>
       <r>   -8.4419    1.0000 </r>
       <r>   -7.6118    1.0000 </r>
       <r>   -7.2941    1.0000 </r>
       <r>   -7.2940    1.0000 </r>
       <r>   -5.8418    1.0000 </r>
       <r>   -3.0454    0.0000 </r>
       <r>   -3.0453    0.0000 </r>
       <r>   -2.6933    0.0000 </r>
       <r>   -2.6932    0.0000 </r>
       <r>    0.2275    0.0000 </r>
       <r>    0.7217    0.0000 </r>
       <r>    1.7477    0.0000 </r>
       <r>    2.0644    0.0000 </r>
       <r>    2.4554    0.0000 </r>
       <r>    3.0392    0.0000 </r>
       <r>    3.3643    0.0000 </r>
       <r>    3.5734    0.0000 </r>
      </set>
      <set comment="kpoint 2">
       <r>  -40.8498    1.0000 </r>
       <r>  -40.6367    1.0000 </r>
       <r>  -40.6313    1.0000 </r>
       <r>  -19.9879    1.0000 </r>
       <r>  -18.6115    1.0000 </r>
       <r>  -11.4723    1.0000 </r>
       <r>   -8.5031    1.0000 </r>
       <r>   -8.4144    1.0000 </r>
       <r>   -7.7918    1.0000 </r>
       <r>   -7.3375    1.0000 </r>
       <r>   -7.1534    1.0000 </r>
       <r>   -5.8519    1.0000 </r>
       <r>   -3.0912    0.0000 </r>
       <r>   -3.0128    0.0000 </r>
       <r>   -2.7686    0.0000 </r>
       <r>   -2.7091    0.0000 </r>
       <r>    0.2932    0.0000 </r>
       <r>    0.8207    0.0000 </r>
       <r>    1.7835    0.0000 </r>
       <r>    2.0984    0.0000 </r>
       <r>    2.4896    0.0000 </r>
       <r>    3.0734    0.0000 </r>
       <r>    3.4920    0.0000 </r>
       <r>    3.6083    0.0000 </r>
      </set>
      <set comment="kpoint 3">
       <r>  -40.8458    1.0000 </r>
       <r>  -40.6568    1.0000 </r>
       <r>  -40.6359    1.0000 </r>
       <r>  -19.9099    1.0000 </r>
       <r>  -18.5780    1.0000 </r>
       <r>  -11.3839    1.0000 </r>
       <r>   -8.6745    1.0000 </r>
       <r>   -8.3340    1.0000 </r>
       <r>   -8.0900    1.0000 </r>
       <r>   -7.4585    1.0000 </r>
       <r>   -6.9816    1.0000 </r>
       <r>   -5.8885    1.0000 </r>
       <r>   -3.2020    0.0000 </r>
       <r>   -2.9694    0.0000 </r>
       <r>   -2.9511    0.0000 </r>
       <r>   -2.7066    0.0000 </r>
       <r>    0.4455    0.0000 </r>
       <r>    1.1209    0.0000 </r>
       <r>    1.8911    0.0000 </r>
       <r>    2.1996    0.0000 </r>
       <r>    2.5920    0.0000 </r>
       <r>    3.1756    0.0000 </r>
       <r>    3.7055    0.0000 </r>
       <r>    3.8432    0.0000 </r>
      </set>
      <set comment="kpoint 4">
       <r>  -40.8396    1.0000 </r>
       <r>  -40.6888    1.0000 </r>
       <r>  -40.6432    1.0000 </r>
       <r>  -19.7836    1.0000 </r>
       <r>  -18.5234    1.0000 </r>
       <r>  -11.2478    1.0000 </r>
       <r>   -8.9247    1.0000 </r>
       <r>   -8.4108    1.0000 </r>
       <r>   -8.2079    1.0000 </r>
       <r>   -7.6324    1.0000 </r>
       <r>   -6.8930    1.0000 </r>
       <r>   -5.9687    1.0000 </r>
       <r>   -3.3417    0.0000 </r>
       <r>   -3.1223    0.0000 </r>
       <r>   -3.0331    0.0000 </r>
       <r>   -2.5785    0.0000 </r>
       <r>    0.6387    0.0000 </r>
       <r>    1.5594    0.0000 </r>
       <r>    2.0737    0.0000 </r>
       <r>    2.3782    0.0000 </r>
       <r>    2.7623    0.0000 </r>
       <r>    3.3447    0.0000 </r>
       <r>    3.8723    0.0000 </r>
       <r>    4.2694    0.0000 </r>
      </set>
      <set comment="kpoint 5">
       <r>  -40.8314    1.0000 </r>
       <r>  -40.7301    1.0000 </r>
       <r>  -40.6526    1.0000 </r>
       <r>  -19.6141    1.0000 </r>
       <r>  -18.4498    1.0000 </r>
       <r>  -11.0857    1.0000 </r>
       <r>   -9.2115    1.0000 </r>
       <r>   -8.7388    1.0000 </r>
       <r>   -8.0665    1.0000 </r>
       <r>   -7.8114    1.0000 </r>
       <r>   -6.9097    1.0000 </r>
       <r>   -6.1110    1.0000 </r>
       <r>   -3.4997    0.0000 </r>
       <r>   -3.1615    0.0000 </r>
       <r>   -3.1508    0.0000 </r>
       <r>   -2.3771    0.0000 </r>
       <r>    0.8689    0.0000 </r>
       <r>    1.9651    0.0000 </r>
       <r>    2.3265    0.0000 </r>
       <r>    2.6869    0.0000 </r>
       <r>    3.0024    0.0000 </r>
       <r>    3.5786    0.0000 </r>
       <r>    4.0747    0.0000 </r>
       <r>    4.2092    0.0000 </r>
      </set>
      <set comment="kpoint 6">
       <r>  -40.8218    1.0000 </r>
       <r>  -40.7779    1.0000 </r>
       <r>  -40.6636    1.0000 </r>
       <r>  -19.4093    1.0000 </r>
       <r>  -18.3600    1.0000 </r>
       <r>  -10.9385    1.0000 </r>
       <r>   -9.4852    1.0000 </r>
       <r>   -9.0663    1.0000 </r>
       <r>   -8.1235    1.0000 </r>
       <r>   -7.7706    1.0000 </r>
       <r>   -7.0154    1.0000 </r>
       <r>   -6.3141    1.0000 </r>
       <r>   -3.6048    0.0000 </r>
       <r>   -3.2999    0.0000 </r>
       <r>   -3.0388    0.0000 </r>
       <r>   -2.1639    0.0000 </r>
       <r>    1.1340    0.0000 </r>
       <r>    2.2214    0.0000 </r>
       <r>    2.6121    0.0000 </r>
       <r>    3.0588    0.0000 </r>
       <r>    3.3263    0.0000 </r>
       <r>    3.8574    0.0000 </r>
       <r>    3.9520    0.0000 </r>
       <r>    4.1472    0.0000 </r>
      </set>
      <set comment="kpoint 7">
       <r>  -40.8288    1.0000 </r>
       <r>  -40.8115    1.0000 </r>
       <r>  -40.6753    1.0000 </r>
       <r>  -19.1793    1.0000 </r>
       <r>  -18.2581    1.0000 </r>
       <r>  -10.8745    1.0000 </r>
       <r>   -9.6926    1.0000 </r>
       <r>   -9.3789    1.0000 </r>
       <r>   -8.3219    1.0000 </r>
       <r>   -7.5650    1.0000 </r>
       <r>   -7.1689    1.0000 </r>
       <r>   -6.5391    1.0000 </r>
       <r>   -3.6223    0.0000 </r>
       <r>   -3.4222    0.0000 </r>
       <r>   -2.8350    0.0000 </r>
       <r>   -1.9665    0.0000 </r>
       <r>    1.4203    0.0000 </r>
       <r>    2.3631    0.0000 </r>
       <r>    2.8929    0.0000 </r>
       <r>    3.1294    0.0000 </r>
       <r>    3.5707    0.0000 </r>
       <r>    3.8012    0.0000 </r>
       <r>    4.0547    0.0000 </r>
       <r>    4.2946    0.0000 </r>
      </set>
      <set comment="kpoint 8">
       <r>  -40.8792    1.0000 </r>
       <r>  -40.8013    1.0000 </r>
       <r>  -40.6870    1.0000 </r>
       <r>  -18.9373    1.0000 </r>
       <r>  -18.1487    1.0000 </r>
       <r>  -10.9491    1.0000 </r>
       <r>   -9.8486    1.0000 </r>
       <r>   -9.6193    1.0000 </r>
       <r>   -8.5160    1.0000 </r>
       <r>   -7.3452    1.0000 </r>
       <r>   -7.3298    1.0000 </r>
       <r>   -6.7189    1.0000 </r>
       <r>   -3.5637    0.0000 </r>
       <r>   -3.5125    0.0000 </r>
       <r>   -2.5875    0.0000 </r>
       <r>   -1.7990    0.0000 </r>
       <r>    1.6950    0.0000 </r>
       <r>    2.4083    0.0000 </r>
       <r>    2.6848    0.0000 </r>
       <r>    3.1744    0.0000 </r>
       <r>    3.5525    0.0000 </r>
       <r>    4.1102    0.0000 </r>
       <r>    4.3116    0.0000 </r>
       <r>    4.7258    0.0000 </r>
      </set>
      <set comment="kpoint 9">
       <r>  -40.9258    1.0000 </r>
       <r>  -40.7917    1.0000 </r>
       <r>  -40.6979    1.0000 </r>
       <r>  -18.7001    1.0000 </r>
       <r>  -18.0376    1.0000 </r>
       <r>  -11.1277    1.0000 </r>
       <r>  -10.0750    1.0000 </r>
       <r>   -9.7104    1.0000 </r>
       <r>   -8.6860    1.0000 </r>
       <r>   -7.4728    1.0000 </r>
       <r>   -7.1407    1.0000 </r>
       <r>   -6.7918    1.0000 </r>
       <r>   -3.5624    0.0000 </r>
       <r>   -3.4532    0.0000 </r>
       <r>   -2.3403    0.0000 </r>
       <r>   -1.6668    0.0000 </r>
       <r>    1.8679    0.0000 </r>
       <r>    2.1581    0.0000 </r>
       <r>    2.4187    0.0000 </r>
       <r>    3.1732    0.0000 </r>
       <r>    3.9264    0.0000 </r>
       <r>    4.3892    0.0000 </r>
       <r>    4.6734    0.0000 </r>
       <r>    5.1752    0.0000 </r>
      </set>
      <set comment="kpoint 10">
       <r>  -40.9655    1.0000 </r>
       <r>  -40.7834    1.0000 </r>
       <r>  -40.7073    1.0000 </r>
       <r>  -18.4875    1.0000 </r>
       <r>  -17.9317    1.0000 </r>
       <r>  -11.3344    1.0000 </r>
       <r>  -10.3097    1.0000 </r>
       <r>   -9.7691    1.0000 </r>
       <r>   -8.8241    1.0000 </r>
       <r>   -7.5867    1.0000 </r>
       <r>   -6.9700    1.0000 </r>
       <r>   -6.7423    1.0000 </r>
       <r>   -3.5732    0.0000 </r>
       <r>   -3.3145    0.0000 </r>
       <r>   -2.1288    0.0000 </r>
       <r>   -1.5699    0.0000 </r>
       <r>    1.4725    0.0000 </r>
       <r>    2.0780    0.0000 </r>
       <r>    2.4036    0.0000 </r>
       <r>    3.3195    0.0000 </r>
       <r>    4.2806    0.0000 </r>
       <r>    4.5998    0.0000 </r>
       <r>    5.0888    0.0000 </r>
       <r>    5.5452    0.0000 </r>
      </set>
      <set comment="kpoint 11">
       <r>  -40.9958    1.0000 </r>
       <r>  -40.7771    1.0000 </r>
       <r>  -40.7144    1.0000 </r>
       <r>  -18.3203    1.0000 </r>
       <r>  -17.8400    1.0000 </r>
       <r>  -11.5158    1.0000 </r>
       <r>  -10.4973    1.0000 </r>
       <r>   -9.8404    1.0000 </r>
       <r>   -8.9255    1.0000 </r>
       <r>   -7.6676    1.0000 </r>
       <r>   -6.8445    1.0000 </r>
       <r>   -6.6181    1.0000 </r>
       <r>   -3.5572    0.0000 </r>
       <r>   -3.1715    0.0000 </r>
       <r>   -1.9752    0.0000 </r>
       <r>   -1.5049    0.0000 </r>
       <r>    0.9413    0.0000 </r>
       <r>    2.0944    0.0000 </r>
       <r>    2.4962    0.0000 </r>
       <r>    3.4683    0.0000 </r>
       <r>    4.3582    0.0000 </r>
       <r>    4.9072    0.0000 </r>
       <r>    5.4458    0.0000 </r>
       <r>    5.9913    0.0000 </r>
      </set>
      <set comment="kpoint 12">
       <r>  -41.0148    1.0000 </r>
       <r>  -40.7731    1.0000 </r>
       <r>  -40.7189    1.0000 </r>
       <r>  -18.2147    1.0000 </r>
       <r>  -17.7751    1.0000 </r>
       <r>  -11.6387    1.0000 </r>
       <r>  -10.6170    1.0000 </r>
       <r>   -9.9006    1.0000 </r>
       <r>   -8.9874    1.0000 </r>
       <r>   -7.7152    1.0000 </r>
       <r>   -6.7691    1.0000 </r>
       <r>   -6.4980    1.0000 </r>
       <r>   -3.5345    0.0000 </r>
       <r>   -3.0564    0.0000 </r>
       <r>   -1.8863    0.0000 </r>
       <r>   -1.4679    0.0000 </r>
       <r>    0.5545    0.0000 </r>
       <r>    2.1202    0.0000 </r>
       <r>    2.6046    0.0000 </r>
       <r>    3.5056    0.0000 </r>
       <r>    4.3186    0.0000 </r>
       <r>    5.1663    0.0000 </r>
       <r>    5.7623    0.0000 </r>
       <r>    5.9327    0.0000 </r>
      </set>
      <set comment="kpoint 13">
       <r>  -41.0212    1.0000 </r>
       <r>  -40.7718    1.0000 </r>
       <r>  -40.7205    1.0000 </r>
       <r>  -18.1790    1.0000 </r>
       <r>  -17.7513    1.0000 </r>
       <r>  -11.6821    1.0000 </r>
       <r>  -10.6581    1.0000 </r>
       <r>   -9.9239    1.0000 </r>
       <r>   -9.0082    1.0000 </r>
       <r>   -7.7309    1.0000 </r>
       <r>   -6.7441    1.0000 </r>
       <r>   -6.4493    1.0000 </r>
       <r>   -3.5242    0.0000 </r>
       <r>   -3.0106    0.0000 </r>
       <r>   -1.8578    0.0000 </r>
       <r>   -1.4560    0.0000 </r>
       <r>    0.4114    0.0000 </r>
       <r>    2.1369    0.0000 </r>
       <r>    2.6526    0.0000 </r>
       <r>    3.4964    0.0000 </r>
       <r>    4.2820    0.0000 </r>
       <r>    5.3386    0.0000 </r>
       <r>    5.6785    0.0000 </r>
       <r>    6.1099    0.0000 </r>
      </set>
      <set comment="kpoint 14">
       <r>  -40.8471    1.0000 </r>
       <r>  -40.6501    1.0000 </r>
       <r>  -40.6345    1.0000 </r>
       <r>  -19.9358    1.0000 </r>
       <r>  -18.5891    1.0000 </r>
       <r>  -11.4128    1.0000 </r>
       <r>   -8.6189    1.0000 </r>
       <r>   -8.3611    1.0000 </r>
       <r>   -8.0039    1.0000 </r>
       <r>   -7.4290    1.0000 </r>
       <r>   -7.0144    1.0000 </r>
       <r>   -5.8752    1.0000 </r>
       <r>   -3.1720    0.0000 </r>
       <r>   -2.9724    0.0000 </r>
       <r>   -2.8970    0.0000 </r>
       <r>   -2.7161    0.0000 </r>
       <r>    0.4002    0.0000 </r>
       <r>    1.0226    0.0000 </r>
       <r>    1.8551    0.0000 </r>
       <r>    2.1657    0.0000 </r>
       <r>    2.5579    0.0000 </r>
       <r>    3.1416    0.0000 </r>
       <r>    3.6699    0.0000 </r>
       <r>    3.7368    0.0000 </r>
      </set>
      <set comment="kpoint 15">
       <r>  -40.8420    1.0000 </r>
       <r>  -40.6759    1.0000 </r>
       <r>  -40.6406    1.0000 </r>
       <r>  -19.8336    1.0000 </r>
       <r>  -18.5450    1.0000 </r>
       <r>  -11.3001    1.0000 </r>
       <r>   -8.8280    1.0000 </r>
       <r>   -8.2948    1.0000 </r>
       <r>   -8.2497    1.0000 </r>
       <r>   -7.5986    1.0000 </r>
       <r>   -6.8880    1.0000 </r>
       <r>   -5.9333    1.0000 </r>
       <r>   -3.2970    0.0000 </r>
       <r>   -3.0799    0.0000 </r>
       <r>   -3.0007    0.0000 </r>
       <r>   -2.6270    0.0000 </r>
       <r>    0.5677    0.0000 </r>
       <r>    1.4025    0.0000 </r>
       <r>    2.0000    0.0000 </r>
       <r>    2.3029    0.0000 </r>
       <r>    2.6942    0.0000 </r>
       <r>    3.2773    0.0000 </r>
       <r>    3.8069    0.0000 </r>
       <r>    4.1366    0.0000 </r>
      </set>
      <set comment="kpoint 16">
       <r>  -40.8348    1.0000 </r>
       <r>  -40.7122    1.0000 </r>
       <r>  -40.6494    1.0000 </r>
       <r>  -19.6856    1.0000 </r>
       <r>  -18.4808    1.0000 </r>
       <r>  -11.1493    1.0000 </r>
       <r>   -9.0939    1.0000 </r>
       <r>   -8.5913    1.0000 </r>
       <r>   -8.1245    1.0000 </r>
       <r>   -7.8020    1.0000 </r>
       <r>   -6.8443    1.0000 </r>
       <r>   -6.0442    1.0000 </r>
       <r>   -3.4458    0.0000 </r>
       <r>   -3.1893    0.0000 </r>
       <r>   -3.1119    0.0000 </r>
       <r>   -2.4377    0.0000 </r>
       <r>    0.7771    0.0000 </r>
       <r>    1.8412    0.0000 </r>
       <r>    2.2214    0.0000 </r>
       <r>    2.5412    0.0000 </r>
       <r>    2.8987    0.0000 </r>
       <r>    3.4791    0.0000 </r>
       <r>    4.0005    0.0000 </r>
       <r>    4.2945    0.0000 </r>
      </set>
      <set comment="kpoint 17">
       <r>  -40.8259    1.0000 </r>
       <r>  -40.7563    1.0000 </r>
       <r>  -40.6600    1.0000 </r>
       <r>  -19.4983    1.0000 </r>
       <r>  -18.3990    1.0000 </r>
       <r>  -10.9905    1.0000 </r>
       <r>   -9.3711    1.0000 </r>
       <r>   -8.9062    1.0000 </r>
       <r>   -8.1184    1.0000 </r>
       <r>   -7.8607    1.0000 </r>
       <r>   -6.8974    1.0000 </r>
       <r>   -6.2179    1.0000 </r>
       <r>   -3.5845    0.0000 </r>
       <r>   -3.2439    0.0000 </r>
       <r>   -3.1501    0.0000 </r>
       <r>   -2.2192    0.0000 </r>
       <r>    1.0262    0.0000 </r>
       <r>    2.1679    0.0000 </r>
       <r>    2.4926    0.0000 </r>
       <r>    2.9246    0.0000 </r>
       <r>    3.1795    0.0000 </r>
       <r>    3.7430    0.0000 </r>
       <r>    4.0425    0.0000 </r>
       <r>    4.2506    0.0000 </r>
      </set>
      <set comment="kpoint 18">
       <r>  -40.8161    1.0000 </r>
       <r>  -40.8051    1.0000 </r>
       <r>  -40.6719    1.0000 </r>
       <r>  -19.2806    1.0000 </r>
       <r>  -18.3030    1.0000 </r>
       <r>  -10.8785    1.0000 </r>
       <r>   -9.6062    1.0000 </r>
       <r>   -9.2239    1.0000 </r>
       <r>   -8.3166    1.0000 </r>
       <r>   -7.6878    1.0000 </r>
       <r>   -7.0231    1.0000 </r>
       <r>   -6.4333    1.0000 </r>
       <r>   -3.6577    0.0000 </r>
       <r>   -3.3562    0.0000 </r>
       <r>   -2.9973    0.0000 </r>
       <r>   -2.0082    0.0000 </r>
       <r>    1.3071    0.0000 </r>
       <r>    2.3630    0.0000 </r>
       <r>    2.7892    0.0000 </r>
       <r>    3.1881    0.0000 </r>
       <r>    3.5200    0.0000 </r>
       <r>    3.8529    0.0000 </r>
       <r>    4.0136    0.0000 </r>
       <r>    4.1548    0.0000 </r>
      </set>
      <set comment="kpoint 19">
       <r>  -40.8552    1.0000 </r>
       <r>  -40.8058    1.0000 </r>
       <r>  -40.6841    1.0000 </r>
       <r>  -19.0442    1.0000 </r>
       <r>  -18.1969    1.0000 </r>
       <r>  -10.8844    1.0000 </r>
       <r>   -9.7631    1.0000 </r>
       <r>   -9.5156    1.0000 </r>
       <r>   -8.5126    1.0000 </r>
       <r>   -7.4992    1.0000 </r>
       <r>   -7.1775    1.0000 </r>
       <r>   -6.6314    1.0000 </r>
       <r>   -3.6651    0.0000 </r>
       <r>   -3.4245    0.0000 </r>
       <r>   -2.7732    0.0000 </r>
       <r>   -1.8250    0.0000 </r>
       <r>    1.5993    0.0000 </r>
       <r>    2.4617    0.0000 </r>
       <r>    2.9080    0.0000 </r>
       <r>    3.1688    0.0000 </r>
       <r>    3.5479    0.0000 </r>
       <r>    3.9598    0.0000 </r>
       <r>    4.2001    0.0000 </r>
       <r>    4.5270    0.0000 </r>
      </set>
      <set comment="kpoint 20">
       <r>  -40.9032    1.0000 </r>
       <r>  -40.7958    1.0000 </r>
       <r>  -40.6959    1.0000 </r>
       <r>  -18.8039    1.0000 </r>
       <r>  -18.0861    1.0000 </r>
       <r>  -11.0201    1.0000 </r>
       <r>   -9.9499    1.0000 </r>
       <r>   -9.6743    1.0000 </r>
       <r>   -8.6790    1.0000 </r>
       <r>   -7.3975    1.0000 </r>
       <r>   -7.2705    1.0000 </r>
       <r>   -6.7349    1.0000 </r>
       <r>   -3.6394    0.0000 </r>
       <r>   -3.4233    0.0000 </r>
       <r>   -2.5228    0.0000 </r>
       <r>   -1.6813    0.0000 </r>
       <r>    1.8578    0.0000 </r>
       <r>    2.4014    0.0000 </r>
       <r>    2.5355    0.0000 </r>
       <r>    3.1993    0.0000 </r>
       <r>    3.7460    0.0000 </r>
       <r>    4.2975    0.0000 </r>
       <r>    4.4997    0.0000 </r>
       <r>    4.9753    0.0000 </r>
      </set>
      <set comment="kpoint 21">
       <r>  -40.9459    1.0000 </r>
       <r>  -40.7869    1.0000 </r>
       <r>  -40.7065    1.0000 </r>
       <r>  -18.5780    1.0000 </r>
       <r>  -17.9768    1.0000 </r>
       <r>  -11.2175    1.0000 </r>
       <r>  -10.2007    1.0000 </r>
       <r>   -9.7300    1.0000 </r>
       <r>   -8.8117    1.0000 </r>
       <r>   -7.5032    1.0000 </r>
       <r>   -7.1748    1.0000 </r>
       <r>   -6.7048    1.0000 </r>
       <r>   -3.6067    0.0000 </r>
       <r>   -3.3478    0.0000 </r>
       <r>   -2.2824    0.0000 </r>
       <r>   -1.5832    0.0000 </r>
       <r>    1.7829    0.0000 </r>
       <r>    2.1207    0.0000 </r>
       <r>    2.4657    0.0000 </r>
       <r>    3.2762    0.0000 </r>
       <r>    4.1554    0.0000 </r>
       <r>    4.5126    0.0000 </r>
       <r>    4.9122    0.0000 </r>
       <r>    5.3920    0.0000 </r>
      </set>
      <set comment="kpoint 22">
       <r>  -40.9806    1.0000 </r>
       <r>  -40.7796    1.0000 </r>
       <r>  -40.7151    1.0000 </r>
       <r>  -18.3872    1.0000 </r>
       <r>  -17.8766    1.0000 </r>
       <r>  -11.4121    1.0000 </r>
       <r>  -10.4218    1.0000 </r>
       <r>   -9.7960    1.0000 </r>
       <r>   -8.9104    1.0000 </r>
       <r>   -7.6102    1.0000 </r>
       <r>   -7.0655    1.0000 </r>
       <r>   -6.5896    1.0000 </r>
       <r>   -3.5700    0.0000 </r>
       <r>   -3.2270    0.0000 </r>
       <r>   -2.0775    0.0000 </r>
       <r>   -1.5325    0.0000 </r>
       <r>    1.2298    0.0000 </r>
       <r>    2.1764    0.0000 </r>
       <r>    2.5185    0.0000 </r>
       <r>    3.4369    0.0000 </r>
       <r>    4.3771    0.0000 </r>
       <r>    4.7804    0.0000 </r>
       <r>    5.2716    0.0000 </r>
       <r>    5.7578    0.0000 </r>
      </set>
      <set comment="kpoint 23">
       <r>  -41.0050    1.0000 </r>
       <r>  -40.7744    1.0000 </r>
       <r>  -40.7212    1.0000 </r>
       <r>  -18.2505    1.0000 </r>
       <r>  -17.7965    1.0000 </r>
       <r>  -11.5637    1.0000 </r>
       <r>  -10.5814    1.0000 </r>
       <r>   -9.8670    1.0000 </r>
       <r>   -8.9758    1.0000 </r>
       <r>   -7.6850    1.0000 </r>
       <r>   -6.9740    1.0000 </r>
       <r>   -6.4602    1.0000 </r>
       <r>   -3.5370    0.0000 </r>
       <r>   -3.0993    0.0000 </r>
       <r>   -1.9231    0.0000 </r>
       <r>   -1.5231    0.0000 </r>
       <r>    0.7554    0.0000 </r>
       <r>    2.2205    0.0000 </r>
       <r>    2.6380    0.0000 </r>
       <r>    3.5217    0.0000 </r>
       <r>    4.3764    0.0000 </r>
       <r>    5.0382    0.0000 </r>
       <r>    5.6422    0.0000 </r>
       <r>    5.7500    0.0000 </r>
      </set>
      <set comment="kpoint 24">
       <r>  -41.0175    1.0000 </r>
       <r>  -40.7718    1.0000 </r>
       <r>  -40.7243    1.0000 </r>
       <r>  -18.1800    1.0000 </r>
       <r>  -17.7507    1.0000 </r>
       <r>  -11.6465    1.0000 </r>
       <r>  -10.6648    1.0000 </r>
       <r>   -9.9122    1.0000 </r>
       <r>   -9.0084    1.0000 </r>
       <r>   -7.7229    1.0000 </r>
       <r>   -6.9236    1.0000 </r>
       <r>   -6.3750    1.0000 </r>
       <r>   -3.5181    0.0000 </r>
       <r>   -3.0126    0.0000 </r>
       <r>   -1.8337    0.0000 </r>
       <r>   -1.5347    0.0000 </r>
       <r>    0.4807    0.0000 </r>
       <r>    2.2625    0.0000 </r>
       <r>    2.7312    0.0000 </r>
       <r>    3.5139    0.0000 </r>
       <r>    4.3141    0.0000 </r>
       <r>    5.2634    0.0000 </r>
       <r>    5.5688    0.0000 </r>
       <r>    6.1057    0.0000 </r>
      </set>
      <set comment="kpoint 25">
       <r>  -40.8360    1.0000 </r>
       <r>  -40.7056    1.0000 </r>
       <r>  -40.6487    1.0000 </r>
       <r>  -19.7098    1.0000 </r>
       <r>  -18.4913    1.0000 </r>
       <r>  -11.1715    1.0000 </r>
       <r>   -9.0500    1.0000 </r>
       <r>   -8.5260    1.0000 </r>
       <r>   -8.1487    1.0000 </r>
       <r>   -7.8293    1.0000 </r>
       <r>   -6.8004    1.0000 </r>
       <r>   -6.0216    1.0000 </r>
       <r>   -3.4320    0.0000 </r>
       <r>   -3.2072    0.0000 </r>
       <r>   -3.0999    0.0000 </r>
       <r>   -2.4468    0.0000 </r>
       <r>    0.7474    0.0000 </r>
       <r>    1.8006    0.0000 </r>
       <r>    2.1852    0.0000 </r>
       <r>    2.4925    0.0000 </r>
       <r>    2.8645    0.0000 </r>
       <r>    3.4459    0.0000 </r>
       <r>    3.9711    0.0000 </r>
       <r>    4.3296    0.0000 </r>
      </set>
      <set comment="kpoint 26">
       <r>  -40.8281    1.0000 </r>
       <r>  -40.7439    1.0000 </r>
       <r>  -40.6594    1.0000 </r>
       <r>  -19.5438    1.0000 </r>
       <r>  -18.4188    1.0000 </r>
       <r>  -11.0196    1.0000 </r>
       <r>   -9.3015    1.0000 </r>
       <r>   -8.7843    1.0000 </r>
       <r>   -8.1823    1.0000 </r>
       <r>   -7.9298    1.0000 </r>
       <r>   -6.7810    1.0000 </r>
       <r>   -6.1642    1.0000 </r>
       <r>   -3.5779    0.0000 </r>
       <r>   -3.2491    0.0000 </r>
       <r>   -3.2163    0.0000 </r>
       <r>   -2.2211    0.0000 </r>
       <r>    0.9756    0.0000 </r>
       <r>    2.1671    0.0000 </r>
       <r>    2.4348    0.0000 </r>
       <r>    2.8310    0.0000 </r>
       <r>    3.1059    0.0000 </r>
       <r>    3.6787    0.0000 </r>
       <r>    4.1109    0.0000 </r>
       <r>    4.2411    0.0000 </r>
      </set>
      <set comment="kpoint 27">
       <r>  -40.8188    1.0000 </r>
       <r>  -40.7880    1.0000 </r>
       <r>  -40.6719    1.0000 </r>
       <r>  -19.3434    1.0000 </r>
       <r>  -18.3303    1.0000 </r>
       <r>  -10.8856    1.0000 </r>
       <r>   -9.5336    1.0000 </r>
       <r>   -9.0683    1.0000 </r>
       <r>   -8.4287    1.0000 </r>
       <r>   -7.7901    1.0000 </r>
       <r>   -6.8458    1.0000 </r>
       <r>   -6.3527    1.0000 </r>
       <r>   -3.6954    0.0000 </r>
       <r>   -3.3107    0.0000 </r>
       <r>   -3.1726    0.0000 </r>
       <r>   -1.9944    0.0000 </r>
       <r>    1.2454    0.0000 </r>
       <r>    2.4212    0.0000 </r>
       <r>    2.7125    0.0000 </r>
       <r>    3.2246    0.0000 </r>
       <r>    3.4377    0.0000 </r>
       <r>    3.9108    0.0000 </r>
       <r>    3.9863    0.0000 </r>
       <r>    4.2955    0.0000 </r>
      </set>
      <set comment="kpoint 28">
       <r>  -40.8350    1.0000 </r>
       <r>  -40.8089    1.0000 </r>
       <r>  -40.6854    1.0000 </r>
       <r>  -19.1185    1.0000 </r>
       <r>  -18.2296    1.0000 </r>
       <r>  -10.8362    1.0000 </r>
       <r>   -9.6931    1.0000 </r>
       <r>   -9.3746    1.0000 </r>
       <r>   -8.6402    1.0000 </r>
       <r>   -7.6503    1.0000 </r>
       <r>   -6.9704    1.0000 </r>
       <r>   -6.5438    1.0000 </r>
       <r>   -3.7571    0.0000 </r>
       <r>   -3.3566    0.0000 </r>
       <r>   -3.0035    0.0000 </r>
       <r>   -1.7939    0.0000 </r>
       <r>    1.5441    0.0000 </r>
       <r>    2.5783    0.0000 </r>
       <r>    3.0153    0.0000 </r>
       <r>    3.2501    0.0000 </r>
       <r>    3.6713    0.0000 </r>
       <r>    3.9184    0.0000 </r>
       <r>    4.1557    0.0000 </r>
       <r>    4.3879    0.0000 </r>
      </set>
      <set comment="kpoint 29">
       <r>  -40.8816    1.0000 </r>
       <r>  -40.7990    1.0000 </r>
       <r>  -40.6988    1.0000 </r>
       <r>  -18.8825    1.0000 </r>
       <r>  -18.1212    1.0000 </r>
       <r>  -10.9160    1.0000 </r>
       <r>   -9.8227    1.0000 </r>
       <r>   -9.6202    1.0000 </r>
       <r>   -8.7928    1.0000 </r>
       <r>   -7.5635    1.0000 </r>
       <r>   -7.1181    1.0000 </r>
       <r>   -6.6615    1.0000 </r>
       <r>   -3.7556    0.0000 </r>
       <r>   -3.3547    0.0000 </r>
       <r>   -2.7777    0.0000 </r>
       <r>   -1.6369    0.0000 </r>
       <r>    1.8461    0.0000 </r>
       <r>    2.6408    0.0000 </r>
       <r>    2.8016    0.0000 </r>
       <r>    3.3093    0.0000 </r>
       <r>    3.6828    0.0000 </r>
       <r>    4.2091    0.0000 </r>
       <r>    4.4233    0.0000 </r>
       <r>    4.8155    0.0000 </r>
      </set>
      <set comment="kpoint 30">
       <r>  -40.9247    1.0000 </r>
       <r>  -40.7897    1.0000 </r>
       <r>  -40.7113    1.0000 </r>
       <r>  -18.6518    1.0000 </r>
       <r>  -18.0108    1.0000 </r>
       <r>  -11.0839    1.0000 </r>
       <r>  -10.0837    1.0000 </r>
       <r>   -9.6830    1.0000 </r>
       <r>   -8.8952    1.0000 </r>
       <r>   -7.5332    1.0000 </r>
       <r>   -7.2628    1.0000 </r>
       <r>   -6.6531    1.0000 </r>
       <r>   -3.6968    0.0000 </r>
       <r>   -3.3151    0.0000 </r>
       <r>   -2.5327    0.0000 </r>
       <r>   -1.5350    0.0000 </r>
       <r>    2.0595    0.0000 </r>
       <r>    2.2830    0.0000 </r>
       <r>    2.6600    0.0000 </r>
       <r>    3.3574    0.0000 </r>
       <r>    4.0258    0.0000 </r>
       <r>    4.5015    0.0000 </r>
       <r>    4.7696    0.0000 </r>
       <r>    5.2561    0.0000 </r>
      </set>
      <set comment="kpoint 31">
       <r>  -40.9614    1.0000 </r>
       <r>  -40.7817    1.0000 </r>
       <r>  -40.7220    1.0000 </r>
       <r>  -18.4458    1.0000 </r>
       <r>  -17.9052    1.0000 </r>
       <r>  -11.2720    1.0000 </r>
       <r>  -10.3464    1.0000 </r>
       <r>   -9.7341    1.0000 </r>
       <r>   -8.9592    1.0000 </r>
       <r>   -7.5525    1.0000 </r>
       <r>   -7.3424    1.0000 </r>
       <r>   -6.5540    1.0000 </r>
       <r>   -3.6085    0.0000 </r>
       <r>   -3.2420    0.0000 </r>
       <r>   -2.2957    0.0000 </r>
       <r>   -1.4954    0.0000 </r>
       <r>    1.5935    0.0000 </r>
       <r>    2.3497    0.0000 </r>
       <r>    2.6816    0.0000 </r>
       <r>    3.4750    0.0000 </r>
       <r>    4.3916    0.0000 </r>
       <r>    4.7089    0.0000 </r>
       <r>    5.1484    0.0000 </r>
       <r>    5.5279    0.0000 </r>
      </set>
      <set comment="kpoint 32">
       <r>  -40.9894    1.0000 </r>
       <r>  -40.7756    1.0000 </r>
       <r>  -40.7302    1.0000 </r>
       <r>  -18.2844    1.0000 </r>
       <r>  -17.8136    1.0000 </r>
       <r>  -11.4352    1.0000 </r>
       <r>  -10.5525    1.0000 </r>
       <r>   -9.8095    1.0000 </r>
       <r>   -8.9953    1.0000 </r>
       <r>   -7.6339    1.0000 </r>
       <r>   -7.3154    1.0000 </r>
       <r>   -6.4223    1.0000 </r>
       <r>   -3.5401    0.0000 </r>
       <r>   -3.1302    0.0000 </r>
       <r>   -2.0828    0.0000 </r>
       <r>   -1.5178    0.0000 </r>
       <r>    1.0597    0.0000 </r>
       <r>    2.4702    0.0000 </r>
       <r>    2.7981    0.0000 </r>
       <r>    3.5825    0.0000 </r>
       <r>    4.4889    0.0000 </r>
       <r>    4.9136    0.0000 </r>
       <r>    5.3376    0.0000 </r>
       <r>    5.6151    0.0000 </r>
      </set>
      <set comment="kpoint 33">
       <r>  -41.0070    1.0000 </r>
       <r>  -40.7718    1.0000 </r>
       <r>  -40.7354    1.0000 </r>
       <r>  -18.1828    1.0000 </r>
       <r>  -17.7489    1.0000 </r>
       <r>  -11.5452    1.0000 </r>
       <r>  -10.6828    1.0000 </r>
       <r>   -9.8756    1.0000 </r>
       <r>   -9.0126    1.0000 </r>
       <r>   -7.7046    1.0000 </r>
       <r>   -7.2701    1.0000 </r>
       <r>   -6.3086    1.0000 </r>
       <r>   -3.5135    0.0000 </r>
       <r>   -3.0112    0.0000 </r>
       <r>   -1.9029    0.0000 </r>
       <r>   -1.5910    0.0000 </r>
       <r>    0.6758    0.0000 </r>
       <r>    2.5750    0.0000 </r>
       <r>    2.9411    0.0000 </r>
       <r>    3.5795    0.0000 </r>
       <r>    4.3928    0.0000 </r>
       <r>    5.0217    0.0000 </r>
       <r>    5.4316    0.0000 </r>
       <r>    6.0196    0.0000 </r>
      </set>
      <set comment="kpoint 34">
       <r>  -41.0130    1.0000 </r>
       <r>  -40.7705    1.0000 </r>
       <r>  -40.7371    1.0000 </r>
       <r>  -18.1484    1.0000 </r>
       <r>  -17.7252    1.0000 </r>
       <r>  -11.5840    1.0000 </r>
       <r>  -10.7274    1.0000 </r>
       <r>   -9.9013    1.0000 </r>
       <r>   -9.0176    1.0000 </r>
       <r>   -7.7304    1.0000 </r>
       <r>   -7.2520    1.0000 </r>
       <r>   -6.2629    1.0000 </r>
       <r>   -3.5090    0.0000 </r>
       <r>   -2.9583    0.0000 </r>
       <r>   -1.7975    0.0000 </r>
       <r>   -1.6627    0.0000 </r>
       <r>    0.5340    0.0000 </r>
       <r>    2.6268    0.0000 </r>
       <r>    3.0090    0.0000 </r>
       <r>    3.5488    0.0000 </r>
       <r>    4.3195    0.0000 </r>
       <r>    5.0683    0.0000 </r>
       <r>    5.5123    0.0000 </r>
       <r>    6.1781    0.0000 </r>
      </set>
      <set comment="kpoint 35">
       <r>  -40.8198    1.0000 </r>
       <r>  -40.7817    1.0000 </r>
       <r>  -40.6725    1.0000 </r>
       <r>  -19.3646    1.0000 </r>
       <r>  -18.3395    1.0000 </r>
       <r>  -10.8887    1.0000 </r>
       <r>   -9.5051    1.0000 </r>
       <r>   -8.9861    1.0000 </r>
       <r>   -8.5051    1.0000 </r>
       <r>   -7.8289    1.0000 </r>
       <r>   -6.7702    1.0000 </r>
       <r>   -6.3218    1.0000 </r>
       <r>   -3.7103    0.0000 </r>
       <r>   -3.2966    0.0000 </r>
       <r>   -3.2468    0.0000 </r>
       <r>   -1.9834    0.0000 </r>
       <r>    1.2256    0.0000 </r>
       <r>    2.4547    0.0000 </r>
       <r>    2.6881    0.0000 </r>
       <r>    3.2319    0.0000 </r>
       <r>    3.4028    0.0000 </r>
       <r>    3.9098    0.0000 </r>
       <r>    3.9856    0.0000 </r>
       <r>    4.4286    0.0000 </r>
      </set>
      <set comment="kpoint 36">
       <r>  -40.8231    1.0000 </r>
       <r>  -40.8105    1.0000 </r>
       <r>  -40.6875    1.0000 </r>
       <r>  -19.1566    1.0000 </r>
       <r>  -18.2461    1.0000 </r>
       <r>  -10.8106    1.0000 </r>
       <r>   -9.6514    1.0000 </r>
       <r>   -9.2379    1.0000 </r>
       <r>   -8.7879    1.0000 </r>
       <r>   -7.7400    1.0000 </r>
       <r>   -6.8302    1.0000 </r>
       <r>   -6.4886    1.0000 </r>
       <r>   -3.8094    0.0000 </r>
       <r>   -3.3247    0.0000 </r>
       <r>   -3.1586    0.0000 </r>
       <r>   -1.7647    0.0000 </r>
       <r>    1.5166    0.0000 </r>
       <r>    2.6739    0.0000 </r>
       <r>    2.9873    0.0000 </r>
       <r>    3.4308    0.0000 </r>
       <r>    3.6926    0.0000 </r>
       <r>    3.9712    0.0000 </r>
       <r>    4.2106    0.0000 </r>
       <r>    4.3356    0.0000 </r>
      </set>
      <set comment="kpoint 37">
       <r>  -40.8653    1.0000 </r>
       <r>  -40.8010    1.0000 </r>
       <r>  -40.7034    1.0000 </r>
       <r>  -18.9316    1.0000 </r>
       <r>  -18.1424    1.0000 </r>
       <r>  -10.8395    1.0000 </r>
       <r>   -9.7240    1.0000 </r>
       <r>   -9.5417    1.0000 </r>
       <r>   -8.9497    1.0000 </r>
       <r>   -7.7219    1.0000 </r>
       <r>   -6.9416    1.0000 </r>
       <r>   -6.6098    1.0000 </r>
       <r>   -3.8388    0.0000 </r>
       <r>   -3.3115    0.0000 </r>
       <r>   -2.9931    0.0000 </r>
       <r>   -1.5885    0.0000 </r>
       <r>    1.8321    0.0000 </r>
       <r>    2.8105    0.0000 </r>
       <r>    3.0977    0.0000 </r>
       <r>    3.3448    0.0000 </r>
       <r>    3.8275    0.0000 </r>
       <r>    4.1534    0.0000 </r>
       <r>    4.4289    0.0000 </r>
       <r>    4.7015    0.0000 </r>
      </set>
      <set comment="kpoint 38">
       <r>  -40.9056    1.0000 </r>
       <r>  -40.7917    1.0000 </r>
       <r>  -40.7188    1.0000 </r>
       <r>  -18.7039    1.0000 </r>
       <r>  -18.0335    1.0000 </r>
       <r>  -10.9640    1.0000 </r>
       <r>   -9.9630    1.0000 </r>
       <r>   -9.6379    1.0000 </r>
       <r>   -9.0258    1.0000 </r>
       <r>   -7.7657    1.0000 </r>
       <r>   -7.0986    1.0000 </r>
       <r>   -6.6257    1.0000 </r>
       <r>   -3.7841    0.0000 </r>
       <r>   -3.2759    0.0000 </r>
       <r>   -2.7817    0.0000 </r>
       <r>   -1.4681    0.0000 </r>
       <r>    2.1330    0.0000 </r>
       <r>    2.6166    0.0000 </r>
       <r>    2.8783    0.0000 </r>
       <r>    3.5503    0.0000 </r>
       <r>    3.9596    0.0000 </r>
       <r>    4.4978    0.0000 </r>
       <r>    4.7044    0.0000 </r>
       <r>    5.1330    0.0000 </r>
      </set>
      <set comment="kpoint 39">
       <r>  -40.9415    1.0000 </r>
       <r>  -40.7834    1.0000 </r>
       <r>  -40.7327    1.0000 </r>
       <r>  -18.4915    1.0000 </r>
       <r>  -17.9253    1.0000 </r>
       <r>  -11.1254    1.0000 </r>
       <r>  -10.2716    1.0000 </r>
       <r>   -9.6575    1.0000 </r>
       <r>   -9.0513    1.0000 </r>
       <r>   -7.8035    1.0000 </r>
       <r>   -7.2780    1.0000 </r>
       <r>   -6.5499    1.0000 </r>
       <r>   -3.6674    0.0000 </r>
       <r>   -3.2266    0.0000 </r>
       <r>   -2.5574    0.0000 </r>
       <r>   -1.4098    0.0000 </r>
       <r>    1.9715    0.0000 </r>
       <r>    2.4967    0.0000 </r>
       <r>    2.9113    0.0000 </r>
       <r>    3.6300    0.0000 </r>
       <r>    4.3497    0.0000 </r>
       <r>    4.7206    0.0000 </r>
       <r>    5.0280    0.0000 </r>
       <r>    5.3113    0.0000 </r>
      </set>
      <set comment="kpoint 40">
       <r>  -40.9706    1.0000 </r>
       <r>  -40.7766    1.0000 </r>
       <r>  -40.7440    1.0000 </r>
       <r>  -18.3134    1.0000 </r>
       <r>  -17.8259    1.0000 </r>
       <r>  -11.2785    1.0000 </r>
       <r>  -10.5268    1.0000 </r>
       <r>   -9.7245    1.0000 </r>
       <r>   -9.0458    1.0000 </r>
       <r>   -7.8056    1.0000 </r>
       <r>   -7.4387    1.0000 </r>
       <r>   -6.4255    1.0000 </r>
       <r>   -3.5605    0.0000 </r>
       <r>   -3.1387    0.0000 </r>
       <r>   -2.3459    0.0000 </r>
       <r>   -1.4116    0.0000 </r>
       <r>    1.4251    0.0000 </r>
       <r>    2.7198    0.0000 </r>
       <r>    3.0041    0.0000 </r>
       <r>    3.7315    0.0000 </r>
       <r>    4.5827    0.0000 </r>
       <r>    4.7784    0.0000 </r>
       <r>    5.1366    0.0000 </r>
       <r>    5.5407    0.0000 </r>
      </set>
      <set comment="kpoint 41">
       <r>  -40.9910    1.0000 </r>
       <r>  -40.7718    1.0000 </r>
       <r>  -40.7520    1.0000 </r>
       <r>  -18.1868    1.0000 </r>
       <r>  -17.7464    1.0000 </r>
       <r>  -11.3957    1.0000 </r>
       <r>  -10.7060    1.0000 </r>
       <r>   -9.8092    1.0000 </r>
       <r>   -9.0264    1.0000 </r>
       <r>   -7.8051    1.0000 </r>
       <r>   -7.5436    1.0000 </r>
       <r>   -6.2924    1.0000 </r>
       <r>   -3.5293    0.0000 </r>
       <r>   -2.9963    0.0000 </r>
       <r>   -2.1686    0.0000 </r>
       <r>   -1.4574    0.0000 </r>
       <r>    0.9655    0.0000 </r>
       <r>    2.9225    0.0000 </r>
       <r>    3.1761    0.0000 </r>
       <r>    3.7485    0.0000 </r>
       <r>    4.3772    0.0000 </r>
       <r>    4.8689    0.0000 </r>
       <r>    5.3905    0.0000 </r>
       <r>    5.9053    0.0000 </r>
      </set>
      <set comment="kpoint 42">
       <r>  -41.0016    1.0000 </r>
       <r>  -40.7693    1.0000 </r>
       <r>  -40.7562    1.0000 </r>
       <r>  -18.1217    1.0000 </r>
       <r>  -17.7011    1.0000 </r>
       <r>  -11.4593    1.0000 </r>
       <r>  -10.7982    1.0000 </r>
       <r>   -9.8649    1.0000 </r>
       <r>   -9.0102    1.0000 </r>
       <r>   -7.8206    1.0000 </r>
       <r>   -7.5816    1.0000 </r>
       <r>   -6.2031    1.0000 </r>
       <r>   -3.5394    0.0000 </r>
       <r>   -2.8815    0.0000 </r>
       <r>   -2.0562    0.0000 </r>
       <r>   -1.5086    0.0000 </r>
       <r>    0.6993    0.0000 </r>
       <r>    3.0913    0.0000 </r>
       <r>    3.3485    0.0000 </r>
       <r>    3.6581    0.0000 </r>
       <r>    4.1636    0.0000 </r>
       <r>    4.9494    0.0000 </r>
       <r>    5.5581    0.0000 </r>
       <r>    6.2339    0.0000 </r>
      </set>
      <set comment="kpoint 43">
       <r>  -40.8590    1.0000 </r>
       <r>  -40.8016    1.0000 </r>
       <r>  -40.7056    1.0000 </r>
       <r>  -18.9482    1.0000 </r>
       <r>  -18.1495    1.0000 </r>
       <r>  -10.8112    1.0000 </r>
       <r>   -9.6904    1.0000 </r>
       <r>   -9.4850    1.0000 </r>
       <r>   -9.0355    1.0000 </r>
       <r>   -7.7811    1.0000 </r>
       <r>   -6.8722    1.0000 </r>
       <r>   -6.5898    1.0000 </r>
       <r>   -3.8688    0.0000 </r>
       <r>   -3.2973    0.0000 </r>
       <r>   -3.0773    0.0000 </r>
       <r>   -1.5690    0.0000 </r>
       <r>    1.8256    0.0000 </r>
       <r>    2.8742    0.0000 </r>
       <r>    3.2251    0.0000 </r>
       <r>    3.3424    0.0000 </r>
       <r>    3.9389    0.0000 </r>
       <r>    4.1607    0.0000 </r>
       <r>    4.4541    0.0000 </r>
       <r>    4.6464    0.0000 </r>
      </set>
      <set comment="kpoint 44">
       <r>  -40.8939    1.0000 </r>
       <r>  -40.7927    1.0000 </r>
       <r>  -40.7246    1.0000 </r>
       <r>  -18.7308    1.0000 </r>
       <r>  -18.0448    1.0000 </r>
       <r>  -10.8917    1.0000 </r>
       <r>   -9.8716    1.0000 </r>
       <r>   -9.6106    1.0000 </r>
       <r>   -9.1284    1.0000 </r>
       <r>   -7.9134    1.0000 </r>
       <r>   -6.9829    1.0000 </r>
       <r>   -6.6146    1.0000 </r>
       <r>   -3.8341    0.0000 </r>
       <r>   -3.2541    0.0000 </r>
       <r>   -2.9351    0.0000 </r>
       <r>   -1.4245    0.0000 </r>
       <r>    2.1470    0.0000 </r>
       <r>    2.8538    0.0000 </r>
       <r>    3.0218    0.0000 </r>
       <r>    3.6785    0.0000 </r>
       <r>    4.0230    0.0000 </r>
       <r>    4.4717    0.0000 </r>
       <r>    4.7206    0.0000 </r>
       <r>    5.0421    0.0000 </r>
      </set>
      <set comment="kpoint 45">
       <r>  -40.9255    1.0000 </r>
       <r>  -40.7844    1.0000 </r>
       <r>  -40.7429    1.0000 </r>
       <r>  -18.5204    1.0000 </r>
       <r>  -17.9372    1.0000 </r>
       <r>  -11.0114    1.0000 </r>
       <r>  -10.2112    1.0000 </r>
       <r>   -9.5798    1.0000 </r>
       <r>   -9.1406    1.0000 </r>
       <r>   -8.0635    1.0000 </r>
       <r>   -7.1550    1.0000 </r>
       <r>   -6.5585    1.0000 </r>
       <r>   -3.7154    0.0000 </r>
       <r>   -3.2086    0.0000 </r>
       <r>   -2.7599    0.0000 </r>
       <r>   -1.3348    0.0000 </r>
       <r>    2.2665    0.0000 </r>
       <r>    2.5943    0.0000 </r>
       <r>    3.0847    0.0000 </r>
       <r>    3.8459    0.0000 </r>
       <r>    4.3069    0.0000 </r>
       <r>    4.6644    0.0000 </r>
       <r>    4.9492    0.0000 </r>
       <r>    5.3222    0.0000 </r>
      </set>
      <set comment="kpoint 46">
       <r>  -40.9522    1.0000 </r>
       <r>  -40.7773    1.0000 </r>
       <r>  -40.7589    1.0000 </r>
       <r>  -18.3347    1.0000 </r>
       <r>  -17.8336    1.0000 </r>
       <r>  -11.1319    1.0000 </r>
       <r>  -10.5059    1.0000 </r>
       <r>   -9.6123    1.0000 </r>
       <r>   -9.1074    1.0000 </r>
       <r>   -8.1596    1.0000 </r>
       <r>   -7.3479    1.0000 </r>
       <r>   -6.4470    1.0000 </r>
       <r>   -3.5897    0.0000 </r>
       <r>   -3.1327    0.0000 </r>
       <r>   -2.5836    0.0000 </r>
       <r>   -1.2956    0.0000 </r>
       <r>    1.7976    0.0000 </r>
       <r>    2.8429    0.0000 </r>
       <r>    3.1515    0.0000 </r>
       <r>    3.9384    0.0000 </r>
       <r>    4.4696    0.0000 </r>
       <r>    4.7788    0.0000 </r>
       <r>    5.2182    0.0000 </r>
       <r>    5.5256    0.0000 </r>
      </set>
      <set comment="kpoint 47">
       <r>  -40.9725    1.0000 </r>
       <r>  -40.7718    1.0000 </r>
       <r>  -40.7713    1.0000 </r>
       <r>  -18.1908    1.0000 </r>
       <r>  -17.7436    1.0000 </r>
       <r>  -11.2315    1.0000 </r>
       <r>  -10.7263    1.0000 </r>
       <r>   -9.7053    1.0000 </r>
       <r>   -9.0506    1.0000 </r>
       <r>   -8.1941    1.0000 </r>
       <r>   -7.5240    1.0000 </r>
       <r>   -6.3050    1.0000 </r>
       <r>   -3.5618    0.0000 </r>
       <r>   -2.9732    0.0000 </r>
       <r>   -2.4332    0.0000 </r>
       <r>   -1.2946    0.0000 </r>
       <r>    1.3118    0.0000 </r>
       <r>    3.1175    0.0000 </r>
       <r>    3.2599    0.0000 </r>
       <r>    4.0193    0.0000 </r>
       <r>    4.2815    0.0000 </r>
       <r>    5.0640    0.0000 </r>
       <r>    5.4296    0.0000 </r>
       <r>    5.8624    0.0000 </r>
      </set>
      <set comment="kpoint 48">
       <r>  -40.9851    1.0000 </r>
       <r>  -40.7792    1.0000 </r>
       <r>  -40.7683    1.0000 </r>
       <r>  -18.1009    1.0000 </r>
       <r>  -17.6806    1.0000 </r>
       <r>  -11.2979    1.0000 </r>
       <r>  -10.8598    1.0000 </r>
       <r>   -9.7973    1.0000 </r>
       <r>   -8.9959    1.0000 </r>
       <r>   -8.2019    1.0000 </r>
       <r>   -7.6490    1.0000 </r>
       <r>   -6.1774    1.0000 </r>
       <r>   -3.6042    0.0000 </r>
       <r>   -2.7978    0.0000 </r>
       <r>   -2.3309    0.0000 </r>
       <r>   -1.3108    0.0000 </r>
       <r>    0.9549    0.0000 </r>
       <r>    3.3578    0.0000 </r>
       <r>    3.4221    0.0000 </r>
       <r>    3.9892    0.0000 </r>
       <r>    4.1008    0.0000 </r>
       <r>    5.1701    0.0000 </r>
       <r>    5.6217    0.0000 </r>
       <r>    6.2382    0.0000 </r>
      </set>
      <set comment="kpoint 49">
       <r>  -40.9893    1.0000 </r>
       <r>  -40.7819    1.0000 </r>
       <r>  -40.7672    1.0000 </r>
       <r>  -18.0705    1.0000 </r>
       <r>  -17.6577    1.0000 </r>
       <r>  -11.3214    1.0000 </r>
       <r>  -10.9040    1.0000 </r>
       <r>   -9.8344    1.0000 </r>
       <r>   -8.9726    1.0000 </r>
       <r>   -8.2039    1.0000 </r>
       <r>   -7.6944    1.0000 </r>
       <r>   -6.1247    1.0000 </r>
       <r>   -3.6307    0.0000 </r>
       <r>   -2.7225    0.0000 </r>
       <r>   -2.2944    0.0000 </r>
       <r>   -1.3199    0.0000 </r>
       <r>    0.8217    0.0000 </r>
       <r>    3.4483    0.0000 </r>
       <r>    3.5765    0.0000 </r>
       <r>    3.8863    0.0000 </r>
       <r>    4.0204    0.0000 </r>
       <r>    5.2012    0.0000 </r>
       <r>    5.7053    0.0000 </r>
       <r>    6.3416    0.0000 </r>
      </set>
      <set comment="kpoint 50">
       <r>  -40.9192    1.0000 </r>
       <r>  -40.7848    1.0000 </r>
       <r>  -40.7472    1.0000 </r>
       <r>  -18.5303    1.0000 </r>
       <r>  -17.9411    1.0000 </r>
       <r>  -10.9679    1.0000 </r>
       <r>  -10.1872    1.0000 </r>
       <r>   -9.5419    1.0000 </r>
       <r>   -9.1792    1.0000 </r>
       <r>   -8.1675    1.0000 </r>
       <r>   -7.1054    1.0000 </r>
       <r>   -6.5634    1.0000 </r>
       <r>   -3.7332    0.0000 </r>
       <r>   -3.2016    0.0000 </r>
       <r>   -2.8355    0.0000 </r>
       <r>   -1.3059    0.0000 </r>
       <r>    2.3711    0.0000 </r>
       <r>    2.6472    0.0000 </r>
       <r>    3.1358    0.0000 </r>
       <r>    3.9446    0.0000 </r>
       <r>    4.3022    0.0000 </r>
       <r>    4.6091    0.0000 </r>
       <r>    4.9318    0.0000 </r>
       <r>    5.4133    0.0000 </r>
      </set>
      <set comment="kpoint 51">
       <r>  -40.9403    1.0000 </r>
       <r>  -40.7776    1.0000 </r>
       <r>  -40.7691    1.0000 </r>
       <r>  -18.3459    1.0000 </r>
       <r>  -17.8372    1.0000 </r>
       <r>  -11.0414    1.0000 </r>
       <r>  -10.4943    1.0000 </r>
       <r>   -9.5047    1.0000 </r>
       <r>   -9.1569    1.0000 </r>
       <r>   -8.4033    1.0000 </r>
       <r>   -7.2815    1.0000 </r>
       <r>   -6.4644    1.0000 </r>
       <r>   -3.6096    0.0000 </r>
       <r>   -3.1266    0.0000 </r>
       <r>   -2.7203    0.0000 </r>
       <r>   -1.2246    0.0000 </r>
       <r>    2.0841    0.0000 </r>
       <r>    2.8316    0.0000 </r>
       <r>    3.1880    0.0000 </r>
       <r>    4.0328    0.0000 </r>
       <r>    4.4826    0.0000 </r>
       <r>    4.7658    0.0000 </r>
       <r>    5.3662    0.0000 </r>
       <r>    5.6256    0.0000 </r>
      </set>
      <set comment="kpoint 52">
       <r>  -40.9562    1.0000 </r>
       <r>  -40.7881    1.0000 </r>
       <r>  -40.7718    1.0000 </r>
       <r>  -18.1938    1.0000 </r>
       <r>  -17.7415    1.0000 </r>
       <r>  -11.1020    1.0000 </r>
       <r>  -10.7367    1.0000 </r>
       <r>   -9.5637    1.0000 </r>
       <r>   -9.0870    1.0000 </r>
       <r>   -8.5536    1.0000 </r>
       <r>   -7.4747    1.0000 </r>
       <r>   -6.3232    1.0000 </r>
       <r>   -3.5916    0.0000 </r>
       <r>   -2.9557    0.0000 </r>
       <r>   -2.6161    0.0000 </r>
       <r>   -1.1713    0.0000 </r>
       <r>    1.6570    0.0000 </r>
       <r>    2.9607    0.0000 </r>
       <r>    3.3065    0.0000 </r>
       <r>    4.1126    0.0000 </r>
       <r>    4.5307    0.0000 </r>
       <r>    5.2315    0.0000 </r>
       <r>    5.6370    0.0000 </r>
       <r>    5.9039    0.0000 </r>
      </set>
      <set comment="kpoint 53">
       <r>  -40.9668    1.0000 </r>
       <r>  -40.8021    1.0000 </r>
       <r>  -40.7677    1.0000 </r>
       <r>  -18.0868    1.0000 </r>
       <r>  -17.6657    1.0000 </r>
       <r>  -11.1572    1.0000 </r>
       <r>  -10.8815    1.0000 </r>
       <r>   -9.6875    1.0000 </r>
       <r>   -8.9962    1.0000 </r>
       <r>   -8.6198    1.0000 </r>
       <r>   -7.6460    1.0000 </r>
       <r>   -6.1689    1.0000 </r>
       <r>   -3.6720    0.0000 </r>
       <r>   -2.7362    0.0000 </r>
       <r>   -2.5394    0.0000 </r>
       <r>   -1.1396    0.0000 </r>
       <r>    1.2683    0.0000 </r>
       <r>    2.9744    0.0000 </r>
       <r>    3.5291    0.0000 </r>
       <r>    4.2300    0.0000 </r>
       <r>    4.5779    0.0000 </r>
       <r>    5.5353    0.0000 </r>
       <r>    5.7661    0.0000 </r>
       <r>    6.2319    0.0000 </r>
      </set>
      <set comment="kpoint 54">
       <r>  -40.9721    1.0000 </r>
       <r>  -40.8096    1.0000 </r>
       <r>  -40.7655    1.0000 </r>
       <r>  -18.0319    1.0000 </r>
       <r>  -17.6232    1.0000 </r>
       <r>  -11.2007    1.0000 </r>
       <r>  -10.9333    1.0000 </r>
       <r>   -9.7817    1.0000 </r>
       <r>   -8.9270    1.0000 </r>
       <r>   -8.6451    1.0000 </r>
       <r>   -7.7510    1.0000 </r>
       <r>   -6.0618    1.0000 </r>
       <r>   -3.7500    0.0000 </r>
       <r>   -2.5899    0.0000 </r>
       <r>   -2.4955    0.0000 </r>
       <r>   -1.1249    0.0000 </r>
       <r>    1.0333    0.0000 </r>
       <r>    2.9777    0.0000 </r>
       <r>    3.7182    0.0000 </r>
       <r>    4.2966    0.0000 </r>
       <r>    4.5660    0.0000 </r>
       <r>    5.6270    0.0000 </r>
       <r>    5.8265    0.0000 </r>
       <r>    6.4191    0.0000 </r>
      </set>
      <set comment="kpoint 55">
       <r>  -40.9494    1.0000 </r>
       <r>  -40.7951    1.0000 </r>
       <r>  -40.7718    1.0000 </r>
       <r>  -18.1949    1.0000 </r>
       <r>  -17.7407    1.0000 </r>
       <r>  -11.0534    1.0000 </r>
       <r>  -10.7385    1.0000 </r>
       <r>   -9.4654    1.0000 </r>
       <r>   -9.1243    1.0000 </r>
       <r>   -8.7100    1.0000 </r>
       <r>   -7.4540    1.0000 </r>
       <r>   -6.3312    1.0000 </r>
       <r>   -3.6034    0.0000 </r>
       <r>   -2.9504    0.0000 </r>
       <r>   -2.6801    0.0000 </r>
       <r>   -1.1257    0.0000 </r>
       <r>    1.8392    0.0000 </r>
       <r>    2.8010    0.0000 </r>
       <r>    3.3295    0.0000 </r>
       <r>    4.1428    0.0000 </r>
       <r>    4.6737    0.0000 </r>
       <r>    5.2620    0.0000 </r>
       <r>    5.8137    0.0000 </r>
       <r>    5.9442    0.0000 </r>
      </set>
      <set comment="kpoint 56">
       <r>  -40.9534    1.0000 </r>
       <r>  -40.8180    1.0000 </r>
       <r>  -40.7673    1.0000 </r>
       <r>  -18.0796    1.0000 </r>
       <r>  -17.6578    1.0000 </r>
       <r>  -11.1015    1.0000 </r>
       <r>  -10.8519    1.0000 </r>
       <r>   -9.5377    1.0000 </r>
       <r>   -9.0927    1.0000 </r>
       <r>   -8.8602    1.0000 </r>
       <r>   -7.6386    1.0000 </r>
       <r>   -6.1670    1.0000 </r>
       <r>   -3.7139    0.0000 </r>
       <r>   -2.7272    0.0000 </r>
       <r>   -2.6285    0.0000 </r>
       <r>   -1.0405    0.0000 </r>
       <r>    1.5535    0.0000 </r>
       <r>    2.6129    0.0000 </r>
       <r>    3.5727    0.0000 </r>
       <r>    4.3664    0.0000 </r>
       <r>    4.9341    0.0000 </r>
       <r>    5.7381    0.0000 </r>
       <r>    6.0381    0.0000 </r>
       <r>    6.3059    0.0000 </r>
      </set>
      <set comment="kpoint 57">
       <r>  -40.9541    1.0000 </r>
       <r>  -40.8342    1.0000 </r>
       <r>  -40.7645    1.0000 </r>
       <r>  -18.0080    1.0000 </r>
       <r>  -17.6009    1.0000 </r>
       <r>  -11.1924    1.0000 </r>
       <r>  -10.8266    1.0000 </r>
       <r>   -9.6954    1.0000 </r>
       <r>   -9.0854    1.0000 </r>
       <r>   -8.8419    1.0000 </r>
       <r>   -7.7909    1.0000 </r>
       <r>   -6.0169    1.0000 </r>
       <r>   -3.8484    0.0000 </r>
       <r>   -2.6655    0.0000 </r>
       <r>   -2.4655    0.0000 </r>
       <r>   -0.9814    0.0000 </r>
       <r>    1.3006    0.0000 </r>
       <r>    2.5089    0.0000 </r>
       <r>    3.7848    0.0000 </r>
       <r>    4.5818    0.0000 </r>
       <r>    5.1295    0.0000 </r>
       <r>    5.9251    0.0000 </r>
       <r>    6.1349    0.0000 </r>
       <r>    6.4702    0.0000 </r>
      </set>
      <set comment="kpoint 58">
       <r>  -40.9539    1.0000 </r>
       <r>  -40.8402    1.0000 </r>
       <r>  -40.7636    1.0000 </r>
       <r>  -17.9837    1.0000 </r>
       <r>  -17.5806    1.0000 </r>
       <r>  -11.2311    1.0000 </r>
       <r>  -10.7982    1.0000 </r>
       <r>   -9.7750    1.0000 </r>
       <r>   -9.0833    1.0000 </r>
       <r>   -8.8136    1.0000 </r>
       <r>   -7.8531    1.0000 </r>
       <r>   -5.9531    1.0000 </r>
       <r>   -3.9093    0.0000 </r>
       <r>   -2.6590    0.0000 </r>
       <r>   -2.3845    0.0000 </r>
       <r>   -0.9601    0.0000 </r>
       <r>    1.1982    0.0000 </r>
       <r>    2.4803    0.0000 </r>
       <r>    3.8773    0.0000 </r>
       <r>    4.6685    0.0000 </r>
       <r>    5.1946    0.0000 </r>
       <r>    5.9030    0.0000 </r>
       <r>    6.1765    0.0000 </r>
       <r>    6.5084    0.0000 </r>
      </set>
      <set comment="kpoint 59">
       <r>  -40.9454    1.0000 </r>
       <r>  -40.8452    1.0000 </r>
       <r>  -40.7642    1.0000 </r>
       <r>  -17.9998    1.0000 </r>
       <r>  -17.5933    1.0000 </r>
       <r>  -11.2046    1.0000 </r>
       <r>  -10.7574    1.0000 </r>
       <r>   -9.6095    1.0000 </r>
       <r>   -9.2889    1.0000 </r>
       <r>   -8.8321    1.0000 </r>
       <r>   -7.8060    1.0000 </r>
       <r>   -6.0000    1.0000 </r>
       <r>   -3.8864    0.0000 </r>
       <r>   -2.7143    0.0000 </r>
       <r>   -2.4329    0.0000 </r>
       <r>   -0.9287    0.0000 </r>
       <r>    1.4700    0.0000 </r>
       <r>    2.2696    0.0000 </r>
       <r>    3.8099    0.0000 </r>
       <r>    4.6809    0.0000 </r>
       <r>    5.3601    0.0000 </r>
       <r>    6.0497    0.0000 </r>
       <r>    6.3520    0.0000 </r>
       <r>    6.4884    0.0000 </r>
      </set>
      <set comment="kpoint 60">
       <r>  -40.9366    1.0000 </r>
       <r>  -40.8639    1.0000 </r>
       <r>  -40.7625    1.0000 </r>
       <r>  -17.9589    1.0000 </r>
       <r>  -17.5579    1.0000 </r>
       <r>  -11.2786    1.0000 </r>
       <r>  -10.6222    1.0000 </r>
       <r>   -9.7908    1.0000 </r>
       <r>   -9.3498    1.0000 </r>
       <r>   -8.7547    1.0000 </r>
       <r>   -7.9229    1.0000 </r>
       <r>   -5.8819    1.0000 </r>
[...]
       <r>     5.0740     1.2023    22.5894 </r>
       <r>     5.0846     1.1360    22.6013 </r>
       <r>     5.0951     1.1044    22.6129 </r>
       <r>     5.1056     1.1219    22.6247 </r>
       <r>     5.1161     1.1858    22.6372 </r>
       <r>     5.1266     1.2775    22.6506 </r>
       <r>     5.1371     1.3699    22.6651 </r>
       <r>     5.1476     1.4375    22.6802 </r>
       <r>     5.1582     1.4655    22.6956 </r>
       <r>     5.1687     1.4533    22.7109 </r>
       <r>     5.1792     1.4127    22.7257 </r>
       <r>     5.1897     1.3620    22.7400 </r>
       <r>     5.2002     1.3192    22.7539 </r>
       <r>     5.2107     1.2956    22.7675 </r>
       <r>     5.2212     1.2940    22.7811 </r>
       <r>     5.2318     1.3084    22.7949 </r>
       <r>     5.2423     1.3271    22.8088 </r>
       <r>     5.2528     1.3375    22.8229 </r>
       <r>     5.2633     1.3306    22.8369 </r>
       <r>     5.2738     1.3053    22.8506 </r>
       <r>     5.2843     1.2686    22.8640 </r>
       <r>     5.2949     1.2320    22.8769 </r>
       <r>     5.3054     1.2062    22.8896 </r>
       <r>     5.3159     1.1966    22.9022 </r>
       <r>     5.3264     1.2019    22.9148 </r>
       <r>     5.3369     1.2168    22.9276 </r>
       <r>     5.3474     1.2352    22.9406 </r>
       <r>     5.3579     1.2529    22.9538 </r>
       <r>     5.3685     1.2674    22.9671 </r>
       <r>     5.3790     1.2765    22.9805 </r>
       <r>     5.3895     1.2767    22.9940 </r>
       <r>     5.4000     1.2623    23.0072 </r>
       <r>     5.4105     1.2267    23.0201 </r>
       <r>     5.4210     1.1644    23.0324 </r>
       <r>     5.4315     1.0748    23.0437 </r>
       <r>     5.4421     0.9648    23.0538 </r>
       <r>     5.4526     0.8511    23.0628 </r>
       <r>     5.4631     0.7581    23.0707 </r>
       <r>     5.4736     0.7125    23.0782 </r>
       <r>     5.4841     0.7351    23.0860 </r>
       <r>     5.4946     0.8325    23.0947 </r>
       <r>     5.5052     0.9920    23.1051 </r>
       <r>     5.5157     1.1830    23.1176 </r>
       <r>     5.5262     1.3654    23.1319 </r>
       <r>     5.5367     1.5018    23.1477 </r>
       <r>     5.5472     1.5707    23.1642 </r>
       <r>     5.5577     1.5740    23.1808 </r>
       <r>     5.5682     1.5359    23.1969 </r>
       <r>     5.5788     1.4921    23.2126 </r>
       <r>     5.5893     1.4742    23.2281 </r>
       <r>     5.5998     1.4960    23.2439 </r>
       <r>     5.6103     1.5473    23.2601 </r>
       <r>     5.6208     1.5990    23.2770 </r>
       <r>     5.6313     1.6170    23.2940 </r>
       <r>     5.6418     1.5776    23.3105 </r>
       <r>     5.6524     1.4773    23.3261 </r>
       <r>     5.6629     1.3334    23.3401 </r>
       <r>     5.6734     1.1759    23.3525 </r>
       <r>     5.6839     1.0370    23.3634 </r>
       <r>     5.6944     0.9419    23.3733 </r>
       <r>     5.7049     0.9039    23.3828 </r>
       <r>     5.7155     0.9221    23.3925 </r>
       <r>     5.7260     0.9820    23.4028 </r>
       <r>     5.7365     1.0584    23.4139 </r>
       <r>     5.7470     1.1222    23.4257 </r>
       <r>     5.7575     1.1489    23.4378 </r>
       <r>     5.7680     1.1267    23.4497 </r>
       <r>     5.7785     1.0601    23.4608 </r>
       <r>     5.7891     0.9670    23.4710 </r>
       <r>     5.7996     0.8709    23.4801 </r>
       <r>     5.8101     0.7914    23.4885 </r>
       <r>     5.8206     0.7397    23.4962 </r>
       <r>     5.8311     0.7180    23.5038 </r>
       <r>     5.8416     0.7241    23.5114 </r>
       <r>     5.8521     0.7547    23.5193 </r>
       <r>     5.8627     0.8074    23.5278 </r>
       <r>     5.8732     0.8787    23.5371 </r>
       <r>     5.8837     0.9612    23.5472 </r>
       <r>     5.8942     1.0423    23.5581 </r>
       <r>     5.9047     1.1058    23.5698 </r>
       <r>     5.9152     1.1371    23.5817 </r>
       <r>     5.9258     1.1286    23.5936 </r>
       <r>     5.9363     1.0834    23.6050 </r>
       <r>     5.9468     1.0140    23.6156 </r>
       <r>     5.9573     0.9381    23.6255 </r>
       <r>     5.9678     0.8716    23.6347 </r>
       <r>     5.9783     0.8249    23.6433 </r>
       <r>     5.9888     0.8004    23.6517 </r>
       <r>     5.9994     0.7934    23.6601 </r>
       <r>     6.0099     0.7950    23.6685 </r>
       <r>     6.0204     0.7942    23.6768 </r>
       <r>     6.0309     0.7822    23.6850 </r>
       <r>     6.0414     0.7541    23.6930 </r>
       <r>     6.0519     0.7122    23.7004 </r>
       <r>     6.0624     0.6643    23.7074 </r>
       <r>     6.0730     0.6214    23.7140 </r>
       <r>     6.0835     0.5927    23.7202 </r>
       <r>     6.0940     0.5814    23.7263 </r>
       <r>     6.1045     0.5839    23.7324 </r>
       <r>     6.1150     0.5918    23.7387 </r>
       <r>     6.1255     0.5966    23.7449 </r>
       <r>     6.1361     0.5933    23.7512 </r>
       <r>     6.1466     0.5826    23.7573 </r>
       <r>     6.1571     0.5702    23.7633 </r>
       <r>     6.1676     0.5644    23.7692 </r>
       <r>     6.1781     0.5737    23.7753 </r>
       <r>     6.1886     0.6033    23.7816 </r>
       <r>     6.1991     0.6524    23.7885 </r>
       <r>     6.2097     0.7123    23.7960 </r>
       <r>     6.2202     0.7678    23.8040 </r>
       <r>     6.2307     0.8011    23.8125 </r>
       <r>     6.2412     0.7991    23.8209 </r>
       <r>     6.2517     0.7591    23.8288 </r>
       <r>     6.2622     0.6910    23.8361 </r>
       <r>     6.2727     0.6126    23.8426 </r>
       <r>     6.2833     0.5421    23.8483 </r>
       <r>     6.2938     0.4910    23.8534 </r>
       <r>     6.3043     0.4610    23.8583 </r>
       <r>     6.3148     0.4458    23.8630 </r>
       <r>     6.3253     0.4357    23.8675 </r>
       <r>     6.3358     0.4222    23.8720 </r>
       <r>     6.3464     0.4015    23.8762 </r>
       <r>     6.3569     0.3749    23.8801 </r>
       <r>     6.3674     0.3479    23.8838 </r>
       <r>     6.3779     0.3282    23.8872 </r>
       <r>     6.3884     0.3222    23.8906 </r>
       <r>     6.3989     0.3342    23.8941 </r>
       <r>     6.4094     0.3649    23.8980 </r>
       <r>     6.4200     0.4127    23.9023 </r>
       <r>     6.4305     0.4749    23.9073 </r>
       <r>     6.4410     0.5470    23.9131 </r>
       <r>     6.4515     0.6219    23.9196 </r>
       <r>     6.4620     0.6886    23.9268 </r>
       <r>     6.4725     0.7336    23.9346 </r>
       <r>     6.4830     0.7443    23.9424 </r>
       <r>     6.4936     0.7138    23.9499 </r>
       <r>     6.5041     0.6437    23.9567 </r>
       <r>     6.5146     0.5446    23.9624 </r>
       <r>     6.5251     0.4331    23.9669 </r>
       <r>     6.5356     0.3263    23.9704 </r>
       <r>     6.5461     0.2388    23.9729 </r>
       <r>     6.5567     0.1792    23.9748 </r>
       <r>     6.5672     0.1504    23.9764 </r>
       <r>     6.5777     0.1493    23.9779 </r>
       <r>     6.5882     0.1683    23.9797 </r>
       <r>     6.5987     0.1965    23.9818 </r>
       <r>     6.6092     0.2222    23.9841 </r>
       <r>     6.6197     0.2353    23.9866 </r>
       <r>     6.6303     0.2302    23.9890 </r>
       <r>     6.6408     0.2070    23.9912 </r>
       <r>     6.6513     0.1707    23.9930 </r>
       <r>     6.6618     0.1293    23.9943 </r>
       <r>     6.6723     0.0901    23.9953 </r>
       <r>     6.6828     0.0585    23.9959 </r>
       <r>     6.6933     0.0367    23.9963 </r>
       <r>     6.7039     0.0244    23.9965 </r>
       <r>     6.7144     0.0200    23.9967 </r>
       <r>     6.7249     0.0213    23.9970 </r>
       <r>     6.7354     0.0259    23.9972 </r>
       <r>     6.7459     0.0317    23.9976 </r>
       <r>     6.7564     0.0366    23.9979 </r>
       <r>     6.7669     0.0390    23.9984 </r>
       <r>     6.7775     0.0382    23.9988 </r>
       <r>     6.7880     0.0342    23.9991 </r>
       <r>     6.7985     0.0282    23.9994 </r>
       <r>     6.8090     0.0212    23.9996 </r>
       <r>     6.8195     0.0146    23.9998 </r>
       <r>     6.8300     0.0092    23.9999 </r>
       <r>     6.8406     0.0054    23.9999 </r>
       <r>     6.8511     0.0028    24.0000 </r>
       <r>     6.8616     0.0014    24.0000 </r>
       <r>     6.8721     0.0006    24.0000 </r>
       <r>     6.8826     0.0002    24.0000 </r>
       <r>     6.8931     0.0001    24.0000 </r>
       <r>     6.9036     0.0000    24.0000 </r>
       <r>     6.9142     0.0000    24.0000 </r>
       <r>     6.9247     0.0000    24.0000 </r>
       <r>     6.9352     0.0000    24.0000 </r>
       <r>     6.9457     0.0000    24.0000 </r>
       <r>     6.9562     0.0000    24.0000 </r>
       <r>     6.9667     0.0000    24.0000 </r>
       <r>     6.9772     0.0000    24.0000 </r>
       <r>     6.9878     0.0000    24.0000 </r>
       <r>     6.9983     0.0000    24.0000 </r>
       <r>     7.0088     0.0000    24.0000 </r>
       <r>     7.0193     0.0000    24.0000 </r>
       <r>     7.0298     0.0000    24.0000 </r>
       <r>     7.0403     0.0000    24.0000 </r>
       <r>     7.0509     0.0000    24.0000 </r>
       <r>     7.0614     0.0000    24.0000 </r>
       <r>     7.0719     0.0000    24.0000 </r>
       <r>     7.0824     0.0000    24.0000 </r>
       <r>     7.0929     0.0000    24.0000 </r>
       <r>     7.1034     0.0000    24.0000 </r>
       <r>     7.1139     0.0000    24.0000 </r>
       <r>     7.1245     0.0000    24.0000 </r>
       <r>     7.1350     0.0000    24.0000 </r>
       <r>     7.1455     0.0000    24.0000 </r>
       <r>     7.1560     0.0000    24.0000 </r>
       <r>     7.1665     0.0000    24.0000 </r>
       <r>     7.1770     0.0000    24.0000 </r>
       <r>     7.1875     0.0000    24.0000 </r>
       <r>     7.1981     0.0000    24.0000 </r>
       <r>     7.2086     0.0000    24.0000 </r>
       <r>     7.2191     0.0000    24.0000 </r>
       <r>     7.2296     0.0000    24.0000 </r>
       <r>     7.2401     0.0000    24.0000 </r>
       <r>     7.2506     0.0000    24.0000 </r>
       <r>     7.2612     0.0000    24.0000 </r>
       <r>     7.2717     0.0000    24.0000 </r>
       <r>     7.2822     0.0000    24.0000 </r>
       <r>     7.2927     0.0000    24.0000 </r>
       <r>     7.3032     0.0000    24.0000 </r>
       <r>     7.3137     0.0000    24.0000 </r>
       <r>     7.3242     0.0000    24.0000 </r>
       <r>     7.3348     0.0000    24.0000 </r>
       <r>     7.3453     0.0000    24.0000 </r>
       <r>     7.3558     0.0000    24.0000 </r>
       <r>     7.3663     0.0000    24.0000 </r>
       <r>     7.3768     0.0000    24.0000 </r>
       <r>     7.3873     0.0000    24.0000 </r>
       <r>     7.3978     0.0000    24.0000 </r>
       <r>     7.4084     0.0000    24.0000 </r>
       <r>     7.4189     0.0000    24.0000 </r>
       <r>     7.4294     0.0000    24.0000 </r>
       <r>     7.4399     0.0000    24.0000 </r>
       <r>     7.4504     0.0000    24.0000 </r>
       <r>     7.4609     0.0000    24.0000 </r>
       <r>     7.4715     0.0000    24.0000 </r>
       <r>     7.4820     0.0000    24.0000 </r>
       <r>     7.4925     0.0000    24.0000 </r>
       <r>     7.5030     0.0000    24.0000 </r>
       <r>     7.5135     0.0000    24.0000 </r>
       <r>     7.5240     0.0000    24.0000 </r>
       <r>     7.5345     0.0000    24.0000 </r>
       <r>     7.5451     0.0000    24.0000 </r>
       <r>     7.5556     0.0000    24.0000 </r>
       <r>     7.5661     0.0000    24.0000 </r>
       <r>     7.5766     0.0000    24.0000 </r>
       <r>     7.5871     0.0000    24.0000 </r>
       <r>     7.5976     0.0000    24.0000 </r>
       <r>     7.6081     0.0000    24.0000 </r>
       <r>     7.6187     0.0000    24.0000 </r>
       <r>     7.6292     0.0000    24.0000 </r>
       <r>     7.6397     0.0000    24.0000 </r>
       <r>     7.6502     0.0000    24.0000 </r>
       <r>     7.6607     0.0000    24.0000 </r>
       <r>     7.6712     0.0000    24.0000 </r>
       <r>     7.6818     0.0000    24.0000 </r>
       <r>     7.6923     0.0000    24.0000 </r>
       <r>     7.7028     0.0000    24.0000 </r>
       <r>     7.7133     0.0000    24.0000 </r>
       <r>     7.7238     0.0000    24.0000 </r>
       <r>     7.7343     0.0000    24.0000 </r>
       <r>     7.7448     0.0000    24.0000 </r>
       <r>     7.7554     0.0000    24.0000 </r>
       <r>     7.7659     0.0000    24.0000 </r>
       <r>     7.7764     0.0000    24.0000 </r>
       <r>     7.7869     0.0000    24.0000 </r>
       <r>     7.7974     0.0000    24.0000 </r>
       <r>     7.8079     0.0000    24.0000 </r>
       <r>     7.8184     0.0000    24.0000 </r>
       <r>     7.8290     0.0000    24.0000 </r>
       <r>     7.8395     0.0000    24.0000 </r>
       <r>     7.8500     0.0000    24.0000 </r>
       <r>     7.8605     0.0000    24.0000 </r>
       <r>     7.8710     0.0000    24.0000 </r>
       <r>     7.8815     0.0000    24.0000 </r>
       <r>     7.8921     0.0000    24.0000 </r>
       <r>     7.9026     0.0000    24.0000 </r>
       <r>     7.9131     0.0000    24.0000 </r>
       <r>     7.9236     0.0000    24.0000 </r>
       <r>     7.9341     0.0000    24.0000 </r>
       <r>     7.9446     0.0000    24.0000 </r>
       <r>     7.9551     0.0000    24.0000 </r>
       <r>     7.9657     0.0000    24.0000 </r>
       <r>     7.9762     0.0000    24.0000 </r>
       <r>     7.9867     0.0000    24.0000 </r>
       <r>     7.9972     0.0000    24.0000 </r>
       <r>     8.0077     0.0000    24.0000 </r>
       <r>     8.0182     0.0000    24.0000 </r>
       <r>     8.0287     0.0000    24.0000 </r>
       <r>     8.0393     0.0000    24.0000 </r>
       <r>     8.0498     0.0000    24.0000 </r>
       <r>     8.0603     0.0000    24.0000 </r>
       <r>     8.0708     0.0000    24.0000 </r>
       <r>     8.0813     0.0000    24.0000 </r>
       <r>     8.0918     0.0000    24.0000 </r>
       <r>     8.1024     0.0000    24.0000 </r>
       <r>     8.1129     0.0000    24.0000 </r>
       <r>     8.1234     0.0000    24.0000 </r>
       <r>     8.1339     0.0000    24.0000 </r>
       <r>     8.1444     0.0000    24.0000 </r>
       <r>     8.1549     0.0000    24.0000 </r>
       <r>     8.1654     0.0000    24.0000 </r>
       <r>     8.1760     0.0000    24.0000 </r>
       <r>     8.1865     0.0000    24.0000 </r>
       <r>     8.1970     0.0000    24.0000 </r>
       <r>     8.2075     0.0000    24.0000 </r>
       <r>     8.2180     0.0000    24.0000 </r>
       <r>     8.2285     0.0000    24.0000 </r>
       <r>     8.2390     0.0000    24.0000 </r>
       <r>     8.2496     0.0000    24.0000 </r>
       <r>     8.2601     0.0000    24.0000 </r>
       <r>     8.2706     0.0000    24.0000 </r>
       <r>     8.2811     0.0000    24.0000 </r>
       <r>     8.2916     0.0000    24.0000 </r>
       <r>     8.3021     0.0000    24.0000 </r>
       <r>     8.3127     0.0000    24.0000 </r>
       <r>     8.3232     0.0000    24.0000 </r>
       <r>     8.3337     0.0000    24.0000 </r>
       <r>     8.3442     0.0000    24.0000 </r>
       <r>     8.3547     0.0000    24.0000 </r>
       <r>     8.3652     0.0000    24.0000 </r>
       <r>     8.3757     0.0000    24.0000 </r>
       <r>     8.3863     0.0000    24.0000 </r>
       <r>     8.3968     0.0000    24.0000 </r>
       <r>     8.4073     0.0000    24.0000 </r>
       <r>     8.4178     0.0000    24.0000 </r>
       <r>     8.4283     0.0000    24.0000 </r>
       <r>     8.4388     0.0000    24.0000 </r>
       <r>     8.4493     0.0000    24.0000 </r>
       <r>     8.4599     0.0000    24.0000 </r>
       <r>     8.4704     0.0000    24.0000 </r>
       <r>     8.4809     0.0000    24.0000 </r>
       <r>     8.4914     0.0000    24.0000 </r>
       <r>     8.5019     0.0000    24.0000 </r>
       <r>     8.5124     0.0000    24.0000 </r>
       <r>     8.5230     0.0000    24.0000 </r>
       <r>     8.5335     0.0000    24.0000 </r>
       <r>     8.5440     0.0000    24.0000 </r>
       <r>     8.5545     0.0000    24.0000 </r>
       <r>     8.5650     0.0000    24.0000 </r>
       <r>     8.5755     0.0000    24.0000 </r>
       <r>     8.5860     0.0000    24.0000 </r>
       <r>     8.5966     0.0000    24.0000 </r>
       <r>     8.6071     0.0000    24.0000 </r>
       <r>     8.6176     0.0000    24.0000 </r>
       <r>     8.6281     0.0000    24.0000 </r>
       <r>     8.6386     0.0000    24.0000 </r>
       <r>     8.6491     0.0000    24.0000 </r>
       <r>     8.6596     0.0000    24.0000 </r>
       <r>     8.6702     0.0000    24.0000 </r>
       <r>     8.6807     0.0000    24.0000 </r>
       <r>     8.6912     0.0000    24.0000 </r>
       <r>     8.7017     0.0000    24.0000 </r>
       <r>     8.7122     0.0000    24.0000 </r>
       <r>     8.7227     0.0000    24.0000 </r>
       <r>     8.7332     0.0000    24.0000 </r>
       <r>     8.7438     0.0000    24.0000 </r>
       <r>     8.7543     0.0000    24.0000 </r>
       <r>     8.7648     0.0000    24.0000 </r>
       <r>     8.7753     0.0000    24.0000 </r>
       <r>     8.7858     0.0000    24.0000 </r>
       <r>     8.7963     0.0000    24.0000 </r>
       <r>     8.8069     0.0000    24.0000 </r>
       <r>     8.8174     0.0000    24.0000 </r>
       <r>     8.8279     0.0000    24.0000 </r>
       <r>     8.8384     0.0000    24.0000 </r>
       <r>     8.8489     0.0000    24.0000 </r>
       <r>     8.8594     0.0000    24.0000 </r>
       <r>     8.8699     0.0000    24.0000 </r>
       <r>     8.8805     0.0000    24.0000 </r>
       <r>     8.8910     0.0000    24.0000 </r>
       <r>     8.9015     0.0000    24.0000 </r>
       <r>     8.9120     0.0000    24.0000 </r>
       <r>     8.9225     0.0000    24.0000 </r>
       <r>     8.9330     0.0000    24.0000 </r>
       <r>     8.9435     0.0000    24.0000 </r>
       <r>     8.9541     0.0000    24.0000 </r>
       <r>     8.9646     0.0000    24.0000 </r>
       <r>     8.9751     0.0000    24.0000 </r>
       <r>     8.9856     0.0000    24.0000 </r>
       <r>     8.9961     0.0000    24.0000 </r>
       <r>     9.0066     0.0000    24.0000 </r>
       <r>     9.0172     0.0000    24.0000 </r>
       <r>     9.0277     0.0000    24.0000 </r>
       <r>     9.0382     0.0000    24.0000 </r>
       <r>     9.0487     0.0000    24.0000 </r>
       <r>     9.0592     0.0000    24.0000 </r>
       <r>     9.0697     0.0000    24.0000 </r>
       <r>     9.0802     0.0000    24.0000 </r>
       <r>     9.0908     0.0000    24.0000 </r>
       <r>     9.1013     0.0000    24.0000 </r>
       <r>     9.1118     0.0000    24.0000 </r>
       <r>     9.1223     0.0000    24.0000 </r>
       <r>     9.1328     0.0000    24.0000 </r>
       <r>     9.1433     0.0000    24.0000 </r>
       <r>     9.1538     0.0000    24.0000 </r>
      </set>
     </set>
    </array>
   </total>
  </dos>
 </calculation>
 <structure name="finalpos" >
  <crystal>
   <varray name="basis" >
    <v>       1.58218970      -2.74043224       0.00000000 </v>
    <v>       1.58218970       2.74043224       0.00000000 </v>
    <v>       0.00000000       0.00000000      34.96267827 </v>
   </varray>
   <i name="volume">    303.18821061 </i>
   <varray name="rec_basis" >
    <v>       0.31601773      -0.18245297       0.00000000 </v>
    <v>       0.31601773       0.18245297       0.00000000 </v>
    <v>       0.00000000       0.00000000       0.02860193 </v>
   </varray>
  </crystal>
  <varray name="positions" >
   <v>       0.66666700       0.33333300       0.10664700 </v>
   <v>       0.33333300       0.66666700       0.06198962 </v>
   <v>       0.33333300       0.66666700       0.15130538 </v>
  </varray>
 </structure>
</modeling>
