 running on    8 total cores
 distrk:  each k-point on    8 cores,    1 groups
 distr:  one band on    1 cores,    8 groups
 using from now: INCAR     
 vasp.5.4.1 05Feb16 (build Feb 01 2017 11:38:15) complex                        
  
 POSCAR found type information on POSCAR  Mo S 
 POSCAR found :  2 types and       3 ions
 scaLAPACK will be used

 ----------------------------------------------------------------------------- 
|                                                                             |
|           W    W    AA    RRRRR   N    N  II  N    N   GGGG   !!!           |
|           W    W   A  A   R    R  NN   N  II  NN   N  G    G  !!!           |
|           W    W  A    A  R    R  N N  N  II  N N  N  G       !!!           |
|           W WW W  AAAAAA  RRRRR   N  N N  II  N  N N  G  GGG   !            |
|           WW  WW  A    A  R   R   N   NN  II  N   NN  G    G                |
|           W    W  A    A  R    R  N    N  II  N    N   GGGG   !!!           |
|                                                                             |
|      For optimal performance we recommend to set                            |
|        NCORE= 4 - approx SQRT( number of cores)                             |
|      NCORE specifies how many cores store one orbital (NPAR=cpu/NCORE).     |
|      This setting can  greatly improve the performance of VASP for DFT.     |
|      The default, NPAR=number of cores might be grossly inefficient         |
|      on modern multi-core architectures or massively parallel machines.     |
|      Do your own testing !!!!                                               |
|      Unfortunately you need to use the default for GW and RPA calculations. |
|      (for HF NCORE is supported but not extensively tested yet)             |
|                                                                             |
 ----------------------------------------------------------------------------- 

 LDA part: xc-table for Pade appr. of Perdew
 found WAVECAR, reading the header
  number of k-points has changed, file:   144 present:   576
  trying to continue reading WAVECAR, but it might fail
 WARNING: stress and forces are not correct
 POSCAR, INCAR and KPOINTS ok, starting setup
 FFT: planning ...
 reading WAVECAR
 the WAVECAR file was read successfully
 reading imaginary part of occupancies ...
 charge-density read from file: MoS2                                    
 reading imaginary part of occupancies ...
 magnetization density read from file 1
 reading imaginary part of occupancies ...
 magnetization density read from file 2
 reading imaginary part of occupancies ...
 magnetization density read from file 3
 entering main loop
       N       E                     dE             d eps       ncg     rms          ort
 gam= 0.000 g(H,U,f)=  0.139E+03 0.560E+02 0.963E-26 ort(H,U,f) = 0.000E+00 0.000E+00 0.000E+00
SDA:   1     0.102121453359E+03    0.10212E+03    0.00000E+00 23040   0.195E+03 0.000E+00
 gam= 0.000 trial= 0.400  step= 0.841 mean= 0.400
 gam= 0.713 g(H,U,f)=  0.118E+03 0.179E+02 0.325E+01 ort(H,U,f) =-0.474E+02 0.227E+02-0.522E+01
CGA:   2     0.278187553016E+02   -0.74303E+02   -0.81914E+02 23040   0.139E+03-0.299E+02
 gam= 0.713 trial= 0.422  step= 0.420 mean= 0.422
 gam= 0.332 g(H,U,f)=  0.384E+02 0.581E+01 0.190E+01 ort(H,U,f) =-0.800E+01 0.129E+02-0.256E+01
CGA:   3     0.312189113359E+01   -0.24697E+02   -0.24706E+02 23040   0.461E+02 0.235E+01
 gam= 0.332 trial= 0.422  step= 0.411 mean= 0.422
 gam= 0.622 g(H,U,f)=  0.238E+02 0.291E+01 0.197E+01 ort(H,U,f) =-0.751E+01 0.631E+01 0.105E+01
CGA:   4    -0.650427746741E+01   -0.96262E+01   -0.96362E+01 23040   0.286E+02-0.151E+00
 gam= 0.622 trial= 0.421  step= 0.565 mean= 0.421
 gam= 0.637 g(H,U,f)=  0.159E+02 0.810E+00 0.151E+01 ort(H,U,f) =-0.589E+01 0.300E+01 0.221E+01
CGA:   5    -0.145804539244E+02   -0.80762E+01   -0.80608E+01 23040   0.182E+02-0.673E+00
 gam= 0.637 trial= 0.429  step= 0.444 mean= 0.429
 gam= 0.422 g(H,U,f)=  0.713E+01 0.257E+00 0.308E+00 ort(H,U,f) =-0.308E+01 0.849E+00 0.760E+00
CGA:   6    -0.185175602223E+02   -0.39371E+01   -0.39553E+01 23040   0.769E+01-0.147E+01
 gam= 0.422 trial= 0.429  step= 0.501 mean= 0.429
 gam= 0.489 g(H,U,f)=  0.331E+01 0.163E+00 0.288E+00 ort(H,U,f) =-0.111E+01 0.115E+00 0.798E+00
CGA:   7    -0.202713130736E+02   -0.17538E+01   -0.17714E+01 23040   0.376E+01-0.195E+00
 gam= 0.489 trial= 0.433  step= 0.411 mean= 0.433
 gam= 0.307 g(H,U,f)=  0.101E+01 0.146E+00 0.857E-03 ort(H,U,f) =-0.845E-03 0.135E+00 0.316E-02
CGA:   8    -0.210210267900E+02   -0.74971E+00   -0.75340E+00 23040   0.115E+01 0.138E+00
 gam= 0.307 trial= 0.432  step= 1.009 mean= 0.432
 gam= 0.000 g(H,U,f)=  0.187E+01 0.611E-01 0.321E-20 ort(H,U,f) =-0.105E+01 0.478E-01 0.395E-19
CGA:   9    -0.212492322890E+02   -0.22821E+00   -0.60300E+00 23040   0.193E+01-0.998E+00
 gam= 0.000 trial= 0.461  step= 0.344 mean= 0.461
 gam= 0.194 g(H,U,f)=  0.328E+00 0.462E-01 0.155E-23 ort(H,U,f) =-0.537E-01 0.536E-01 0.164E-23
CGA:  10    -0.215816602856E+02   -0.33243E+00   -0.33248E+00 23040   0.375E+00-0.706E-04
 gam= 0.194 trial= 0.455  step= 0.552 mean= 0.455
 gam= 0.312 g(H,U,f)=  0.914E-01 0.254E-01 0.221E-15 ort(H,U,f) =-0.429E-01 0.427E-01 0.340E-15
CGA:  11    -0.216850203434E+02   -0.10336E+00   -0.10337E+00 23040   0.117E+00-0.270E-03
 gam= 0.312 trial= 0.460  step= 0.618 mean= 0.460
 gam= 0.439 g(H,U,f)=  0.410E-01 0.102E-01 0.705E-25 ort(H,U,f) =-0.253E-01 0.251E-01 0.158E-24
CGA:  12    -0.217210590923E+02   -0.36039E-01   -0.36065E-01 23040   0.512E-01-0.266E-03
 gam= 0.439 trial= 0.468  step= 0.648 mean= 0.468
 gam= 0.370 g(H,U,f)=  0.167E-01 0.231E-02 0.522E-22 ort(H,U,f) =-0.105E-01 0.103E-01 0.210E-21
CGA:  13    -0.217375905584E+02   -0.16531E-01   -0.16555E-01 23040   0.190E-01-0.216E-03
 gam= 0.370 trial= 0.477  step= 0.637 mean= 0.477
 gam= 0.300 g(H,U,f)=  0.544E-02 0.258E-03 0.172E-36 ort(H,U,f) =-0.211E-02 0.205E-02 0.114E-35
CGA:  14    -0.217436075363E+02   -0.60170E-02   -0.60232E-02 23040   0.570E-02-0.624E-04
 gam= 0.300 trial= 0.485  step= 0.616 mean= 0.485
 gam= 0.235 g(H,U,f)=  0.133E-02 0.107E-04 0.592E-23 ort(H,U,f) =-0.150E-03 0.140E-03 0.657E-22
CGA:  15    -0.217453550922E+02   -0.17476E-02   -0.17483E-02 23040   0.134E-02-0.947E-05
 gam= 0.235 trial= 0.491  step= 0.628 mean= 0.491
 gam= 0.224 g(H,U,f)=  0.295E-03 0.441E-05 0.397E-17 ort(H,U,f) = 0.159E-04-0.174E-04 0.310E-16
CGA:  16    -0.217457740716E+02   -0.41898E-03   -0.41910E-03 23040   0.299E-03-0.158E-05
 gam= 0.224 trial= 0.498  step= 0.669 mean= 0.498
 gam= 0.243 g(H,U,f)=  0.679E-04 0.485E-05 0.475E-17 ort(H,U,f) = 0.148E-05-0.182E-05 0.478E-16
CGA:  17    -0.217458741647E+02   -0.10009E-03   -0.10013E-03 23040   0.727E-04-0.336E-06
 gam= 0.243 trial= 0.507  step= 0.725 mean= 0.507
 gam= 0.289 g(H,U,f)=  0.183E-04 0.270E-05 0.381E-40 ort(H,U,f) =-0.323E-05 0.314E-05-0.825E-41
CGA:  18    -0.217459004920E+02   -0.26327E-04   -0.26339E-04 23040   0.210E-04-0.933E-07
 gam= 0.289 trial= 0.518  step= 0.792 mean= 0.518
 gam= 0.321 g(H,U,f)=  0.583E-05 0.910E-06 0.318E-34 ort(H,U,f) =-0.210E-05 0.207E-05 0.417E-34
CGA:  19    -0.217459087922E+02   -0.83002E-05   -0.83067E-05 23040   0.674E-05-0.371E-07
 gam= 0.321 trial= 0.531  step= 0.841 mean= 0.531
 gam= 0.327 g(H,U,f)=  0.204E-05 0.162E-06 0.144E-43 ort(H,U,f) =-0.673E-06 0.651E-06 0.389E-43
CGA:  20    -0.217459116145E+02   -0.28223E-05   -0.28272E-05 23040   0.221E-05-0.220E-07
 gam= 0.327 trial= 0.547  step= 0.827 mean= 0.547
 gam= 0.293 g(H,U,f)=  0.636E-06 0.112E-07 0.221E-24 ort(H,U,f) =-0.910E-07 0.811E-07 0.108E-23
CGA:  21    -0.217459125209E+02   -0.90639E-06   -0.90957E-06 23040   0.647E-06-0.990E-08
 gam= 0.293 trial= 0.561  step= 0.818 mean= 0.561
 gam= 0.293 g(H,U,f)=  0.187E-06 0.280E-08 0.293E-32 ort(H,U,f) = 0.894E-08-0.966E-08 0.280E-31
CGA:  22    -0.217459127830E+02   -0.26215E-06   -0.26345E-06 23040   0.190E-06-0.724E-09
 gam= 0.293 trial= 0.574  step= 0.855 mean= 0.574
