       N       E                     dE             d eps       ncg     rms          rms(c)
DAV:   1    -0.174093932858E+02   -0.17409E+02   -0.15630E+02 32064   0.766E+01
DAV:   2    -0.212848663473E+02   -0.38755E+01   -0.38505E+01 29576   0.227E+01
DAV:   3    -0.213530602430E+02   -0.68194E-01   -0.68155E-01 31640   0.385E+00
DAV:   4    -0.213546749920E+02   -0.16147E-02   -0.16145E-02 31608   0.507E-01
DAV:   5    -0.213547279523E+02   -0.52960E-04   -0.52960E-04 32544   0.887E-02
DAV:   6    -0.213547284673E+02   -0.51501E-06   -0.51472E-06 32328   0.845E-03
DAV:   7    -0.213547284782E+02   -0.10888E-07   -0.10590E-07 29664   0.113E-03
DAV:   8    -0.213547284783E+02   -0.83674E-10    0.21740E-09 23472   0.136E-04
   1 F= -.21354728E+02 E0= -.21354728E+02  d E =-.251433E-18  mag=    -0.0000
