 running on    8 total cores
 distrk:  each k-point on    8 cores,    1 groups
 distr:  one band on    1 cores,    8 groups
 using from now: INCAR     
 vasp.5.4.1 05Feb16 (build Feb 01 2017 11:31:40) complex                        
  
 POSCAR found type information on POSCAR  Mo S 
 POSCAR found :  2 types and       3 ions
 scaLAPACK will be used

 ----------------------------------------------------------------------------- 
|                                                                             |
|           W    W    AA    RRRRR   N    N  II  N    N   GGGG   !!!           |
|           W    W   A  A   R    R  NN   N  II  NN   N  G    G  !!!           |
|           W    W  A    A  R    R  N N  N  II  N N  N  G       !!!           |
|           W WW W  AAAAAA  RRRRR   N  N N  II  N  N N  G  GGG   !            |
|           WW  WW  A    A  R   R   N   NN  II  N   NN  G    G                |
|           W    W  A    A  R    R  N    N  II  N    N   GGGG   !!!           |
|                                                                             |
|      For optimal performance we recommend to set                            |
|        NCORE= 4 - approx SQRT( number of cores)                             |
|      NCORE specifies how many cores store one orbital (NPAR=cpu/NCORE).     |
|      This setting can  greatly improve the performance of VASP for DFT.     |
|      The default, NPAR=number of cores might be grossly inefficient         |
|      on modern multi-core architectures or massively parallel machines.     |
|      Do your own testing !!!!                                               |
|      Unfortunately you need to use the default for GW and RPA calculations. |
|      (for HF NCORE is supported but not extensively tested yet)             |
|                                                                             |
 ----------------------------------------------------------------------------- 

 LDA part: xc-table for Pade appr. of Perdew
 found WAVECAR, reading the header
  number of k-points has changed, file:    61 present:   240
  trying to continue reading WAVECAR, but it might fail
 WARNING: stress and forces are not correct
 POSCAR, INCAR and KPOINTS ok, starting setup
 FFT: planning ...
 reading WAVECAR
 the WAVECAR file was read successfully
 charge-density read from file: MoS2                                    
 magnetization density read from file 1
 entering main loop
       N       E                     dE             d eps       ncg     rms          rms(c)
DAV:   1    -0.173425654534E+02   -0.17343E+02   -0.15973E+02 31920   0.774E+01
DAV:   2    -0.213006605857E+02   -0.39581E+01   -0.39310E+01 29648   0.230E+01
DAV:   3    -0.213707436651E+02   -0.70083E-01   -0.70044E-01 31576   0.391E+00
DAV:   4    -0.213723639344E+02   -0.16203E-02   -0.16200E-02 31784   0.507E-01
DAV:   5    -0.213724142591E+02   -0.50325E-04   -0.50324E-04 32512   0.868E-02
DAV:   6    -0.213724147707E+02   -0.51166E-06   -0.51139E-06 32736   0.825E-03
DAV:   7    -0.213724147799E+02   -0.91786E-08   -0.88683E-08 29792   0.107E-03
   1 F= -.21372415E+02 E0= -.21372415E+02  d E =-.105995E-19  mag=    -0.0000
