       N       E                     dE             d eps       ncg     rms          rms(c)
DAV:   1     0.172542551577E+03    0.17254E+03   -0.10972E+04  6872   0.791E+02
DAV:   2    -0.414386929555E+01   -0.17669E+03   -0.17017E+03  7928   0.201E+02
DAV:   3    -0.221588773008E+02   -0.18015E+02   -0.17838E+02  7864   0.595E+01
DAV:   4    -0.226848308284E+02   -0.52595E+00   -0.52539E+00  7896   0.122E+01
DAV:   5    -0.226973308210E+02   -0.12500E-01   -0.12499E-01  8584   0.182E+00    0.927E+00
DAV:   6    -0.185125329313E+02    0.41848E+01   -0.15848E+01  7656   0.211E+01    0.482E+00
DAV:   7    -0.183086753437E+02    0.20386E+00   -0.45276E+00  7576   0.120E+01    0.361E+00
DAV:   8    -0.180948293913E+02    0.21385E+00   -0.72767E-01  6984   0.497E+00    0.251E+00
DAV:   9    -0.187927755167E+02   -0.69795E+00   -0.17527E-01  6968   0.215E+00    0.195E+00
DAV:  10    -0.198516074758E+02   -0.10588E+01   -0.60768E-01  7528   0.320E+00    0.146E+00
DAV:  11    -0.207136109695E+02   -0.86200E+00   -0.68940E-01  7824   0.330E+00    0.113E+00
DAV:  12    -0.212622606400E+02   -0.54865E+00   -0.67412E-01  8280   0.327E+00    0.782E-01
DAV:  13    -0.214492506816E+02   -0.18699E+00   -0.25842E-01  8272   0.178E+00    0.618E-01
DAV:  14    -0.214854136765E+02   -0.36163E-01   -0.48507E-02  7104   0.106E+00    0.474E-01
DAV:  15    -0.214772713679E+02    0.81423E-02   -0.57735E-02  8072   0.110E+00    0.341E-01
DAV:  16    -0.215628796719E+02   -0.85608E-01   -0.59797E-02  8000   0.106E+00    0.274E-01
DAV:  17    -0.216575865457E+02   -0.94707E-01   -0.61028E-02  8144   0.110E+00    0.209E-01
DAV:  18    -0.217308682429E+02   -0.73282E-01   -0.29632E-02  7840   0.776E-01    0.138E-01
DAV:  19    -0.217274605656E+02    0.34077E-02   -0.86196E-03  6904   0.494E-01    0.903E-02
DAV:  20    -0.217065359343E+02    0.20925E-01   -0.60070E-03  7056   0.366E-01    0.584E-02
DAV:  21    -0.216989644949E+02    0.75714E-02   -0.87464E-03  6952   0.412E-01    0.303E-02
DAV:  22    -0.216986743040E+02    0.29019E-03   -0.29880E-03  7496   0.241E-01    0.152E-02
DAV:  23    -0.217026770766E+02   -0.40028E-02   -0.40602E-04  6928   0.102E-01    0.753E-03
DAV:  24    -0.217052739434E+02   -0.25969E-02   -0.14626E-04  6712   0.583E-02    0.336E-03
DAV:  25    -0.217061926318E+02   -0.91869E-03   -0.44885E-05  6904   0.294E-02    0.190E-03
DAV:  26    -0.217064929570E+02   -0.30033E-03   -0.10606E-05  7184   0.149E-02    0.109E-03
DAV:  27    -0.217067079293E+02   -0.21497E-03   -0.39405E-06  7120   0.946E-03    0.642E-04
DAV:  28    -0.217067008901E+02    0.70392E-05   -0.10934E-06  7112   0.495E-03    0.431E-04
DAV:  29    -0.217066541874E+02    0.46703E-04   -0.37391E-07  6856   0.327E-03    0.270E-04
DAV:  30    -0.217065964223E+02    0.57765E-04   -0.36965E-07  5888   0.264E-03    0.167E-04
DAV:  31    -0.217065653397E+02    0.31083E-04   -0.11886E-07  6000   0.172E-03    0.110E-04
DAV:  32    -0.217065212169E+02    0.44123E-04   -0.14691E-07  6008   0.178E-03    0.636E-05
DAV:  33    -0.217065125376E+02    0.86793E-05   -0.30280E-08  4960   0.865E-04    0.301E-05
DAV:  34    -0.217065106567E+02    0.18809E-05   -0.29533E-09  5088   0.394E-04    0.185E-05
DAV:  35    -0.217065073115E+02    0.33452E-05   -0.14518E-10  4808   0.229E-04    0.103E-05
DAV:  36    -0.217065076139E+02   -0.30246E-06    0.15552E-09  4864   0.137E-04    0.524E-06
DAV:  37    -0.217065080571E+02   -0.44311E-06    0.21810E-09  5216   0.686E-05    0.320E-06
DAV:  38    -0.217065080721E+02   -0.15048E-07    0.23264E-09  4960   0.354E-05
   1 F= -.21706508E+02 E0= -.21706508E+02  d E =-.773542E-11  mag=    -0.0000
