    3    3    1    1
  0.1010627E+03  0.3164379E-09  0.3164379E-09  0.3496268E-08  0.5000000E-15
  1.000000000000000E-004
  CAR 
 MoS2 SOC SCF (high-res, 24x24x1)        
     24    576     40
