<?xml version="1.0" encoding="ISO-8859-1"?>
<modeling>
 <generator>
  <i name="program" type="string">vasp </i>
  <i name="version" type="string">5.4.1  </i>
  <i name="subversion" type="string">05Feb16 (build Feb 01 2017 11:38:15) complex                          parallel </i>
  <i name="platform" type="string">IFC91_ompi </i>
  <i name="date" type="string">2025 10 20 </i>
  <i name="time" type="string">17:54:38 </i>
 </generator>
 <incar>
  <i type="string" name="SYSTEM"> MoS2 SOC SCF (high-res, 24x24x1)</i>
  <i type="int" name="ISTART">     1</i>
  <i type="string" name="PREC">accurate</i>
  <i type="string" name="ALGO"> All</i>
  <i type="logical" name="LSORBIT"> T  </i>
  <v name="SAXIS">      0.00000000      0.00000000      1.00000000</v>
  <i name="AMIX">      0.20000000</i>
  <i name="BMIX">      0.00010000</i>
  <i name="AMIX_MAG">      0.20000000</i>
  <i name="BMIX_MAG">      0.00010000</i>
  <i type="int" name="ICHARG">    11</i>
  <i type="int" name="NELM">   200</i>
  <i type="int" name="IBRION">    -1</i>
  <i name="EDIFF">      0.00000010</i>
  <i type="int" name="NSW">     0</i>
  <i type="int" name="ISIF">     2</i>
  <i type="int" name="ISYM">     0</i>
  <i name="ENCUT">    600.00000000</i>
  <i type="logical" name="LREAL"> F  </i>
  <i type="int" name="ISMEAR">     0</i>
  <i name="SIGMA">      0.03000000</i>
  <i type="int" name="NWRITE">     3</i>
  <i type="int" name="LMAXMIX">     4</i>
  <i type="logical" name="LWAVE"> T  </i>
  <i type="logical" name="LCHARG"> T  </i>
  <i type="logical" name="LASPH"> T  </i>
  <i type="logical" name="GGA_COMPAT"> F  </i>
  <v type="int" name="KPOINT_BSE">    -1     0     0     0</v>
  <i type="int" name="NELM">   200</i>
  <i type="logical" name="LDIPOL"> T  </i>
  <i type="int" name="IDIPOL">     3</i>
  <v name="DIPOL">      0.50000000      0.50000000      0.50000000</v>
  <i type="logical" name="LASPH"> T  </i>
 </incar>
 <kpoints>
  <generation param="Gamma">
   <v type="int" name="divisions">      24       24        1 </v>
   <v name="usershift">      0.00000000       0.00000000       0.00000000 </v>
   <v name="genvec1">      0.04166667       0.00000000       0.00000000 </v>
   <v name="genvec2">      0.00000000       0.04166667       0.00000000 </v>
   <v name="genvec3">      0.00000000       0.00000000       1.00000000 </v>
   <v name="shift">      0.00000000       0.00000000       0.00000000 </v>
  </generation>
  <varray name="kpointlist" >
   <v>       0.00000000       0.00000000       0.00000000 </v>
   <v>       0.04166667       0.00000000       0.00000000 </v>
   <v>       0.08333333       0.00000000       0.00000000 </v>
   <v>       0.12500000       0.00000000       0.00000000 </v>
   <v>       0.16666667       0.00000000       0.00000000 </v>
   <v>       0.20833333       0.00000000       0.00000000 </v>
   <v>       0.25000000       0.00000000       0.00000000 </v>
   <v>       0.29166667       0.00000000       0.00000000 </v>
   <v>       0.33333333       0.00000000       0.00000000 </v>
   <v>       0.37500000       0.00000000       0.00000000 </v>
   <v>       0.41666667       0.00000000       0.00000000 </v>
   <v>       0.45833333       0.00000000       0.00000000 </v>
   <v>       0.50000000       0.00000000       0.00000000 </v>
   <v>      -0.45833333      -0.00000000       0.00000000 </v>
   <v>      -0.41666667       0.00000000       0.00000000 </v>
   <v>      -0.37500000      -0.00000000       0.00000000 </v>
   <v>      -0.33333333      -0.00000000       0.00000000 </v>
   <v>      -0.29166667      -0.00000000       0.00000000 </v>
   <v>      -0.25000000       0.00000000       0.00000000 </v>
   <v>      -0.20833333       0.00000000       0.00000000 </v>
   <v>      -0.16666667       0.00000000       0.00000000 </v>
   <v>      -0.12500000       0.00000000       0.00000000 </v>
   <v>      -0.08333333       0.00000000       0.00000000 </v>
   <v>      -0.04166667      -0.00000000       0.00000000 </v>
   <v>       0.00000000       0.04166667       0.00000000 </v>
   <v>       0.04166667       0.04166667       0.00000000 </v>
   <v>       0.08333333       0.04166667       0.00000000 </v>
   <v>       0.12500000       0.04166667       0.00000000 </v>
   <v>       0.16666667       0.04166667       0.00000000 </v>
   <v>       0.20833333       0.04166667       0.00000000 </v>
   <v>       0.25000000       0.04166667       0.00000000 </v>
   <v>       0.29166667       0.04166667       0.00000000 </v>
   <v>       0.33333333       0.04166667       0.00000000 </v>
   <v>       0.37500000       0.04166667       0.00000000 </v>
   <v>       0.41666667       0.04166667       0.00000000 </v>
   <v>       0.45833333       0.04166667       0.00000000 </v>
   <v>       0.50000000       0.04166667       0.00000000 </v>
   <v>      -0.45833333       0.04166667       0.00000000 </v>
   <v>      -0.41666667       0.04166667       0.00000000 </v>
   <v>      -0.37500000       0.04166667       0.00000000 </v>
   <v>      -0.33333333       0.04166667       0.00000000 </v>
   <v>      -0.29166667       0.04166667       0.00000000 </v>
   <v>      -0.25000000       0.04166667       0.00000000 </v>
   <v>      -0.20833333       0.04166667       0.00000000 </v>
   <v>      -0.16666667       0.04166667       0.00000000 </v>
   <v>      -0.12500000       0.04166667       0.00000000 </v>
   <v>      -0.08333333       0.04166667       0.00000000 </v>
   <v>      -0.04166667       0.04166667       0.00000000 </v>
   <v>       0.00000000       0.08333333       0.00000000 </v>
   <v>       0.04166667       0.08333333       0.00000000 </v>
   <v>       0.08333333       0.08333333       0.00000000 </v>
   <v>       0.12500000       0.08333333       0.00000000 </v>
   <v>       0.16666667       0.08333333       0.00000000 </v>
   <v>       0.20833333       0.08333333       0.00000000 </v>
   <v>       0.25000000       0.08333333       0.00000000 </v>
   <v>       0.29166667       0.08333333       0.00000000 </v>
   <v>       0.33333333       0.08333333       0.00000000 </v>
   <v>       0.37500000       0.08333333       0.00000000 </v>
   <v>       0.41666667       0.08333333       0.00000000 </v>
   <v>       0.45833333       0.08333333       0.00000000 </v>
   <v>       0.50000000       0.08333333       0.00000000 </v>
   <v>      -0.45833333       0.08333333       0.00000000 </v>
   <v>      -0.41666667       0.08333333       0.00000000 </v>
   <v>      -0.37500000       0.08333333       0.00000000 </v>
   <v>      -0.33333333       0.08333333       0.00000000 </v>
   <v>      -0.29166667       0.08333333       0.00000000 </v>
   <v>      -0.25000000       0.08333333       0.00000000 </v>
   <v>      -0.20833333       0.08333333       0.00000000 </v>
   <v>      -0.16666667       0.08333333       0.00000000 </v>
   <v>      -0.12500000       0.08333333       0.00000000 </v>
   <v>      -0.08333333       0.08333333       0.00000000 </v>
   <v>      -0.04166667       0.08333333       0.00000000 </v>
   <v>       0.00000000       0.12500000       0.00000000 </v>
   <v>       0.04166667       0.12500000       0.00000000 </v>
   <v>       0.08333333       0.12500000       0.00000000 </v>
   <v>       0.12500000       0.12500000       0.00000000 </v>
   <v>       0.16666667       0.12500000       0.00000000 </v>
   <v>       0.20833333       0.12500000       0.00000000 </v>
   <v>       0.25000000       0.12500000       0.00000000 </v>
   <v>       0.29166667       0.12500000       0.00000000 </v>
   <v>       0.33333333       0.12500000       0.00000000 </v>
   <v>       0.37500000       0.12500000       0.00000000 </v>
   <v>       0.41666667       0.12500000       0.00000000 </v>
   <v>       0.45833333       0.12500000       0.00000000 </v>
   <v>       0.50000000       0.12500000       0.00000000 </v>
   <v>      -0.45833333       0.12500000       0.00000000 </v>
   <v>      -0.41666667       0.12500000       0.00000000 </v>
   <v>      -0.37500000       0.12500000       0.00000000 </v>
   <v>      -0.33333333       0.12500000       0.00000000 </v>
   <v>      -0.29166667       0.12500000       0.00000000 </v>
   <v>      -0.25000000       0.12500000       0.00000000 </v>
   <v>      -0.20833333       0.12500000       0.00000000 </v>
   <v>      -0.16666667       0.12500000       0.00000000 </v>
   <v>      -0.12500000       0.12500000       0.00000000 </v>
   <v>      -0.08333333       0.12500000       0.00000000 </v>
   <v>      -0.04166667       0.12500000       0.00000000 </v>
   <v>       0.00000000       0.16666667       0.00000000 </v>
   <v>       0.04166667       0.16666667       0.00000000 </v>
   <v>       0.08333333       0.16666667       0.00000000 </v>
   <v>       0.12500000       0.16666667       0.00000000 </v>
   <v>       0.16666667       0.16666667       0.00000000 </v>
   <v>       0.20833333       0.16666667       0.00000000 </v>
   <v>       0.25000000       0.16666667       0.00000000 </v>
   <v>       0.29166667       0.16666667       0.00000000 </v>
   <v>       0.33333333       0.16666667       0.00000000 </v>
   <v>       0.37500000       0.16666667       0.00000000 </v>
   <v>       0.41666667       0.16666667       0.00000000 </v>
   <v>       0.45833333       0.16666667       0.00000000 </v>
   <v>       0.50000000       0.16666667       0.00000000 </v>
   <v>      -0.45833333       0.16666667       0.00000000 </v>
   <v>      -0.41666667       0.16666667       0.00000000 </v>
   <v>      -0.37500000       0.16666667       0.00000000 </v>
   <v>      -0.33333333       0.16666667       0.00000000 </v>
   <v>      -0.29166667       0.16666667       0.00000000 </v>
   <v>      -0.25000000       0.16666667       0.00000000 </v>
   <v>      -0.20833333       0.16666667       0.00000000 </v>
   <v>      -0.16666667       0.16666667       0.00000000 </v>
   <v>      -0.12500000       0.16666667       0.00000000 </v>
   <v>      -0.08333333       0.16666667       0.00000000 </v>
   <v>      -0.04166667       0.16666667       0.00000000 </v>
   <v>       0.00000000       0.20833333       0.00000000 </v>
   <v>       0.04166667       0.20833333       0.00000000 </v>
   <v>       0.08333333       0.20833333       0.00000000 </v>
   <v>       0.12500000       0.20833333       0.00000000 </v>
   <v>       0.16666667       0.20833333       0.00000000 </v>
   <v>       0.20833333       0.20833333       0.00000000 </v>
   <v>       0.25000000       0.20833333       0.00000000 </v>
   <v>       0.29166667       0.20833333       0.00000000 </v>
   <v>       0.33333333       0.20833333       0.00000000 </v>
   <v>       0.37500000       0.20833333       0.00000000 </v>
   <v>       0.41666667       0.20833333       0.00000000 </v>
   <v>       0.45833333       0.20833333       0.00000000 </v>
   <v>       0.50000000       0.20833333       0.00000000 </v>
   <v>      -0.45833333       0.20833333       0.00000000 </v>
   <v>      -0.41666667       0.20833333       0.00000000 </v>
   <v>      -0.37500000       0.20833333       0.00000000 </v>
   <v>      -0.33333333       0.20833333       0.00000000 </v>
   <v>      -0.29166667       0.20833333       0.00000000 </v>
   <v>      -0.25000000       0.20833333       0.00000000 </v>
   <v>      -0.20833333       0.20833333       0.00000000 </v>
   <v>      -0.16666667       0.20833333       0.00000000 </v>
   <v>      -0.12500000       0.20833333       0.00000000 </v>
   <v>      -0.08333333       0.20833333       0.00000000 </v>
   <v>      -0.04166667       0.20833333       0.00000000 </v>
   <v>       0.00000000       0.25000000       0.00000000 </v>
   <v>       0.04166667       0.25000000       0.00000000 </v>
   <v>       0.08333333       0.25000000       0.00000000 </v>
   <v>       0.12500000       0.25000000       0.00000000 </v>
   <v>       0.16666667       0.25000000       0.00000000 </v>
   <v>       0.20833333       0.25000000       0.00000000 </v>
   <v>       0.25000000       0.25000000       0.00000000 </v>
   <v>       0.29166667       0.25000000       0.00000000 </v>
   <v>       0.33333333       0.25000000       0.00000000 </v>
   <v>       0.37500000       0.25000000       0.00000000 </v>
   <v>       0.41666667       0.25000000       0.00000000 </v>
   <v>       0.45833333       0.25000000       0.00000000 </v>
   <v>       0.50000000       0.25000000       0.00000000 </v>
   <v>      -0.45833333       0.25000000       0.00000000 </v>
   <v>      -0.41666667       0.25000000       0.00000000 </v>
   <v>      -0.37500000       0.25000000       0.00000000 </v>
   <v>      -0.33333333       0.25000000       0.00000000 </v>
   <v>      -0.29166667       0.25000000       0.00000000 </v>
   <v>      -0.25000000       0.25000000       0.00000000 </v>
   <v>      -0.20833333       0.25000000       0.00000000 </v>
   <v>      -0.16666667       0.25000000       0.00000000 </v>
   <v>      -0.12500000       0.25000000       0.00000000 </v>
   <v>      -0.08333333       0.25000000       0.00000000 </v>
   <v>      -0.04166667       0.25000000       0.00000000 </v>
   <v>       0.00000000       0.29166667       0.00000000 </v>
   <v>       0.04166667       0.29166667       0.00000000 </v>
   <v>       0.08333333       0.29166667       0.00000000 </v>
   <v>       0.12500000       0.29166667       0.00000000 </v>
   <v>       0.16666667       0.29166667       0.00000000 </v>
   <v>       0.20833333       0.29166667       0.00000000 </v>
   <v>       0.25000000       0.29166667       0.00000000 </v>
   <v>       0.29166667       0.29166667       0.00000000 </v>
   <v>       0.33333333       0.29166667       0.00000000 </v>
   <v>       0.37500000       0.29166667       0.00000000 </v>
   <v>       0.41666667       0.29166667       0.00000000 </v>
   <v>       0.45833333       0.29166667       0.00000000 </v>
   <v>       0.50000000       0.29166667       0.00000000 </v>
   <v>      -0.45833333       0.29166667       0.00000000 </v>
   <v>      -0.41666667       0.29166667       0.00000000 </v>
   <v>      -0.37500000       0.29166667       0.00000000 </v>
   <v>      -0.33333333       0.29166667       0.00000000 </v>
   <v>      -0.29166667       0.29166667       0.00000000 </v>
   <v>      -0.25000000       0.29166667       0.00000000 </v>
   <v>      -0.20833333       0.29166667       0.00000000 </v>
   <v>      -0.16666667       0.29166667       0.00000000 </v>
   <v>      -0.12500000       0.29166667       0.00000000 </v>
   <v>      -0.08333333       0.29166667       0.00000000 </v>
   <v>      -0.04166667       0.29166667       0.00000000 </v>
   <v>       0.00000000       0.33333333       0.00000000 </v>
   <v>       0.04166667       0.33333333       0.00000000 </v>
   <v>       0.08333333       0.33333333       0.00000000 </v>
   <v>       0.12500000       0.33333333       0.00000000 </v>
   <v>       0.16666667       0.33333333       0.00000000 </v>
   <v>       0.20833333       0.33333333       0.00000000 </v>
   <v>       0.25000000       0.33333333       0.00000000 </v>
   <v>       0.29166667       0.33333333       0.00000000 </v>
   <v>       0.33333333       0.33333333       0.00000000 </v>
   <v>       0.37500000       0.33333333       0.00000000 </v>
   <v>       0.41666667       0.33333333       0.00000000 </v>
   <v>       0.45833333       0.33333333       0.00000000 </v>
   <v>       0.50000000       0.33333333       0.00000000 </v>
   <v>      -0.45833333       0.33333333       0.00000000 </v>
   <v>      -0.41666667       0.33333333       0.00000000 </v>
   <v>      -0.37500000       0.33333333       0.00000000 </v>
   <v>      -0.33333333       0.33333333       0.00000000 </v>
   <v>      -0.29166667       0.33333333       0.00000000 </v>
   <v>      -0.25000000       0.33333333       0.00000000 </v>
   <v>      -0.20833333       0.33333333       0.00000000 </v>
   <v>      -0.16666667       0.33333333       0.00000000 </v>
   <v>      -0.12500000       0.33333333       0.00000000 </v>
   <v>      -0.08333333       0.33333333       0.00000000 </v>
   <v>      -0.04166667       0.33333333       0.00000000 </v>
   <v>       0.00000000       0.37500000       0.00000000 </v>
   <v>       0.04166667       0.37500000       0.00000000 </v>
   <v>       0.08333333       0.37500000       0.00000000 </v>
   <v>       0.12500000       0.37500000       0.00000000 </v>
   <v>       0.16666667       0.37500000       0.00000000 </v>
   <v>       0.20833333       0.37500000       0.00000000 </v>
   <v>       0.25000000       0.37500000       0.00000000 </v>
   <v>       0.29166667       0.37500000       0.00000000 </v>
   <v>       0.33333333       0.37500000       0.00000000 </v>
   <v>       0.37500000       0.37500000       0.00000000 </v>
   <v>       0.41666667       0.37500000       0.00000000 </v>
   <v>       0.45833333       0.37500000       0.00000000 </v>
   <v>       0.50000000       0.37500000       0.00000000 </v>
   <v>      -0.45833333       0.37500000       0.00000000 </v>
   <v>      -0.41666667       0.37500000       0.00000000 </v>
   <v>      -0.37500000       0.37500000       0.00000000 </v>
   <v>      -0.33333333       0.37500000       0.00000000 </v>
   <v>      -0.29166667       0.37500000       0.00000000 </v>
   <v>      -0.25000000       0.37500000       0.00000000 </v>
   <v>      -0.20833333       0.37500000       0.00000000 </v>
   <v>      -0.16666667       0.37500000       0.00000000 </v>
   <v>      -0.12500000       0.37500000       0.00000000 </v>
   <v>      -0.08333333       0.37500000       0.00000000 </v>
   <v>      -0.04166667       0.37500000       0.00000000 </v>
   <v>       0.00000000       0.41666667       0.00000000 </v>
   <v>       0.04166667       0.41666667       0.00000000 </v>
   <v>       0.08333333       0.41666667       0.00000000 </v>
   <v>       0.12500000       0.41666667       0.00000000 </v>
   <v>       0.16666667       0.41666667       0.00000000 </v>
   <v>       0.20833333       0.41666667       0.00000000 </v>
   <v>       0.25000000       0.41666667       0.00000000 </v>
   <v>       0.29166667       0.41666667       0.00000000 </v>
   <v>       0.33333333       0.41666667       0.00000000 </v>
   <v>       0.37500000       0.41666667       0.00000000 </v>
   <v>       0.41666667       0.41666667       0.00000000 </v>
   <v>       0.45833333       0.41666667       0.00000000 </v>
   <v>       0.50000000       0.41666667       0.00000000 </v>
   <v>      -0.45833333       0.41666667       0.00000000 </v>
   <v>      -0.41666667       0.41666667       0.00000000 </v>
   <v>      -0.37500000       0.41666667       0.00000000 </v>
   <v>      -0.33333333       0.41666667       0.00000000 </v>
   <v>      -0.29166667       0.41666667       0.00000000 </v>
   <v>      -0.25000000       0.41666667       0.00000000 </v>
   <v>      -0.20833333       0.41666667       0.00000000 </v>
   <v>      -0.16666667       0.41666667       0.00000000 </v>
   <v>      -0.12500000       0.41666667       0.00000000 </v>
   <v>      -0.08333333       0.41666667       0.00000000 </v>
   <v>      -0.04166667       0.41666667       0.00000000 </v>
   <v>       0.00000000       0.45833333       0.00000000 </v>
   <v>       0.04166667       0.45833333       0.00000000 </v>
   <v>       0.08333333       0.45833333       0.00000000 </v>
   <v>       0.12500000       0.45833333       0.00000000 </v>
   <v>       0.16666667       0.45833333       0.00000000 </v>
   <v>       0.20833333       0.45833333       0.00000000 </v>
   <v>       0.25000000       0.45833333       0.00000000 </v>
   <v>       0.29166667       0.45833333       0.00000000 </v>
   <v>       0.33333333       0.45833333       0.00000000 </v>
   <v>       0.37500000       0.45833333       0.00000000 </v>
   <v>       0.41666667       0.45833333       0.00000000 </v>
   <v>       0.45833333       0.45833333       0.00000000 </v>
   <v>       0.50000000       0.45833333       0.00000000 </v>
   <v>      -0.45833333       0.45833333       0.00000000 </v>
   <v>      -0.41666667       0.45833333       0.00000000 </v>
   <v>      -0.37500000       0.45833333       0.00000000 </v>
   <v>      -0.33333333       0.45833333       0.00000000 </v>
   <v>      -0.29166667       0.45833333       0.00000000 </v>
   <v>      -0.25000000       0.45833333       0.00000000 </v>
   <v>      -0.20833333       0.45833333       0.00000000 </v>
   <v>      -0.16666667       0.45833333       0.00000000 </v>
   <v>      -0.12500000       0.45833333       0.00000000 </v>
   <v>      -0.08333333       0.45833333       0.00000000 </v>
   <v>      -0.04166667       0.45833333       0.00000000 </v>
   <v>       0.00000000       0.50000000       0.00000000 </v>
   <v>       0.04166667       0.50000000       0.00000000 </v>
   <v>       0.08333333       0.50000000       0.00000000 </v>
   <v>       0.12500000       0.50000000       0.00000000 </v>
   <v>       0.16666667       0.50000000       0.00000000 </v>
   <v>       0.20833333       0.50000000       0.00000000 </v>
   <v>       0.25000000       0.50000000       0.00000000 </v>
   <v>       0.29166667       0.50000000       0.00000000 </v>
   <v>       0.33333333       0.50000000       0.00000000 </v>
   <v>       0.37500000       0.50000000       0.00000000 </v>
   <v>       0.41666667       0.50000000       0.00000000 </v>
   <v>       0.45833333       0.50000000       0.00000000 </v>
   <v>       0.50000000       0.50000000       0.00000000 </v>
   <v>      -0.45833333       0.50000000       0.00000000 </v>
   <v>      -0.41666667       0.50000000       0.00000000 </v>
   <v>      -0.37500000       0.50000000       0.00000000 </v>
   <v>      -0.33333333       0.50000000       0.00000000 </v>
   <v>      -0.29166667       0.50000000       0.00000000 </v>
   <v>      -0.25000000       0.50000000       0.00000000 </v>
   <v>      -0.20833333       0.50000000       0.00000000 </v>
   <v>      -0.16666667       0.50000000       0.00000000 </v>
   <v>      -0.12500000       0.50000000       0.00000000 </v>
   <v>      -0.08333333       0.50000000       0.00000000 </v>
   <v>      -0.04166667       0.50000000       0.00000000 </v>
   <v>      -0.00000000      -0.45833333       0.00000000 </v>
   <v>       0.04166667      -0.45833333       0.00000000 </v>
   <v>       0.08333333      -0.45833333       0.00000000 </v>
   <v>       0.12500000      -0.45833333       0.00000000 </v>
   <v>       0.16666667      -0.45833333       0.00000000 </v>
   <v>       0.20833333      -0.45833333       0.00000000 </v>
   <v>       0.25000000      -0.45833333       0.00000000 </v>
   <v>       0.29166667      -0.45833333       0.00000000 </v>
   <v>       0.33333333      -0.45833333       0.00000000 </v>
   <v>       0.37500000      -0.45833333       0.00000000 </v>
   <v>       0.41666667      -0.45833333       0.00000000 </v>
   <v>       0.45833333      -0.45833333       0.00000000 </v>
   <v>       0.50000000      -0.45833333       0.00000000 </v>
   <v>      -0.45833333      -0.45833333       0.00000000 </v>
   <v>      -0.41666667      -0.45833333       0.00000000 </v>
   <v>      -0.37500000      -0.45833333       0.00000000 </v>
   <v>      -0.33333333      -0.45833333       0.00000000 </v>
   <v>      -0.29166667      -0.45833333       0.00000000 </v>
   <v>      -0.25000000      -0.45833333       0.00000000 </v>
   <v>      -0.20833333      -0.45833333       0.00000000 </v>
   <v>      -0.16666667      -0.45833333       0.00000000 </v>
   <v>      -0.12500000      -0.45833333       0.00000000 </v>
   <v>      -0.08333333      -0.45833333       0.00000000 </v>
   <v>      -0.04166667      -0.45833333       0.00000000 </v>
   <v>       0.00000000      -0.41666667       0.00000000 </v>
   <v>       0.04166667      -0.41666667       0.00000000 </v>
   <v>       0.08333333      -0.41666667       0.00000000 </v>
   <v>       0.12500000      -0.41666667       0.00000000 </v>
   <v>       0.16666667      -0.41666667       0.00000000 </v>
   <v>       0.20833333      -0.41666667       0.00000000 </v>
   <v>       0.25000000      -0.41666667       0.00000000 </v>
   <v>       0.29166667      -0.41666667       0.00000000 </v>
   <v>       0.33333333      -0.41666667       0.00000000 </v>
   <v>       0.37500000      -0.41666667       0.00000000 </v>
   <v>       0.41666667      -0.41666667       0.00000000 </v>
   <v>       0.45833333      -0.41666667       0.00000000 </v>
   <v>       0.50000000      -0.41666667       0.00000000 </v>
   <v>      -0.45833333      -0.41666667       0.00000000 </v>
   <v>      -0.41666667      -0.41666667       0.00000000 </v>
   <v>      -0.37500000      -0.41666667       0.00000000 </v>
   <v>      -0.33333333      -0.41666667       0.00000000 </v>
   <v>      -0.29166667      -0.41666667       0.00000000 </v>
   <v>      -0.25000000      -0.41666667       0.00000000 </v>
   <v>      -0.20833333      -0.41666667       0.00000000 </v>
   <v>      -0.16666667      -0.41666667       0.00000000 </v>
   <v>      -0.12500000      -0.41666667       0.00000000 </v>
   <v>      -0.08333333      -0.41666667       0.00000000 </v>
   <v>      -0.04166667      -0.41666667       0.00000000 </v>
   <v>      -0.00000000      -0.37500000       0.00000000 </v>
   <v>       0.04166667      -0.37500000       0.00000000 </v>
   <v>       0.08333333      -0.37500000       0.00000000 </v>
   <v>       0.12500000      -0.37500000       0.00000000 </v>
   <v>       0.16666667      -0.37500000       0.00000000 </v>
   <v>       0.20833333      -0.37500000       0.00000000 </v>
   <v>       0.25000000      -0.37500000       0.00000000 </v>
   <v>       0.29166667      -0.37500000       0.00000000 </v>
   <v>       0.33333333      -0.37500000       0.00000000 </v>
   <v>       0.37500000      -0.37500000       0.00000000 </v>
   <v>       0.41666667      -0.37500000       0.00000000 </v>
   <v>       0.45833333      -0.37500000       0.00000000 </v>
   <v>       0.50000000      -0.37500000       0.00000000 </v>
   <v>      -0.45833333      -0.37500000       0.00000000 </v>
   <v>      -0.41666667      -0.37500000       0.00000000 </v>
   <v>      -0.37500000      -0.37500000       0.00000000 </v>
   <v>      -0.33333333      -0.37500000       0.00000000 </v>
   <v>      -0.29166667      -0.37500000       0.00000000 </v>
   <v>      -0.25000000      -0.37500000       0.00000000 </v>
   <v>      -0.20833333      -0.37500000       0.00000000 </v>
   <v>      -0.16666667      -0.37500000       0.00000000 </v>
   <v>      -0.12500000      -0.37500000       0.00000000 </v>
   <v>      -0.08333333      -0.37500000       0.00000000 </v>
   <v>      -0.04166667      -0.37500000       0.00000000 </v>
   <v>      -0.00000000      -0.33333333       0.00000000 </v>
   <v>       0.04166667      -0.33333333       0.00000000 </v>
   <v>       0.08333333      -0.33333333       0.00000000 </v>
   <v>       0.12500000      -0.33333333       0.00000000 </v>
   <v>       0.16666667      -0.33333333       0.00000000 </v>
   <v>       0.20833333      -0.33333333       0.00000000 </v>
   <v>       0.25000000      -0.33333333       0.00000000 </v>
   <v>       0.29166667      -0.33333333       0.00000000 </v>
   <v>       0.33333333      -0.33333333       0.00000000 </v>
   <v>       0.37500000      -0.33333333       0.00000000 </v>
   <v>       0.41666667      -0.33333333       0.00000000 </v>
   <v>       0.45833333      -0.33333333       0.00000000 </v>
   <v>       0.50000000      -0.33333333       0.00000000 </v>
   <v>      -0.45833333      -0.33333333       0.00000000 </v>
   <v>      -0.41666667      -0.33333333       0.00000000 </v>
   <v>      -0.37500000      -0.33333333       0.00000000 </v>
   <v>      -0.33333333      -0.33333333       0.00000000 </v>
   <v>      -0.29166667      -0.33333333       0.00000000 </v>
   <v>      -0.25000000      -0.33333333       0.00000000 </v>
   <v>      -0.20833333      -0.33333333       0.00000000 </v>
   <v>      -0.16666667      -0.33333333       0.00000000 </v>
   <v>      -0.12500000      -0.33333333       0.00000000 </v>
   <v>      -0.08333333      -0.33333333       0.00000000 </v>
   <v>      -0.04166667      -0.33333333       0.00000000 </v>
   <v>      -0.00000000      -0.29166667       0.00000000 </v>
   <v>       0.04166667      -0.29166667       0.00000000 </v>
   <v>       0.08333333      -0.29166667       0.00000000 </v>
   <v>       0.12500000      -0.29166667       0.00000000 </v>
   <v>       0.16666667      -0.29166667       0.00000000 </v>
   <v>       0.20833333      -0.29166667       0.00000000 </v>
   <v>       0.25000000      -0.29166667       0.00000000 </v>
   <v>       0.29166667      -0.29166667       0.00000000 </v>
   <v>       0.33333333      -0.29166667       0.00000000 </v>
   <v>       0.37500000      -0.29166667       0.00000000 </v>
   <v>       0.41666667      -0.29166667       0.00000000 </v>
   <v>       0.45833333      -0.29166667       0.00000000 </v>
   <v>       0.50000000      -0.29166667       0.00000000 </v>
   <v>      -0.45833333      -0.29166667       0.00000000 </v>
   <v>      -0.41666667      -0.29166667       0.00000000 </v>
   <v>      -0.37500000      -0.29166667       0.00000000 </v>
   <v>      -0.33333333      -0.29166667       0.00000000 </v>
   <v>      -0.29166667      -0.29166667       0.00000000 </v>
   <v>      -0.25000000      -0.29166667       0.00000000 </v>
   <v>      -0.20833333      -0.29166667       0.00000000 </v>
   <v>      -0.16666667      -0.29166667       0.00000000 </v>
   <v>      -0.12500000      -0.29166667       0.00000000 </v>
   <v>      -0.08333333      -0.29166667       0.00000000 </v>
   <v>      -0.04166667      -0.29166667       0.00000000 </v>
   <v>       0.00000000      -0.25000000       0.00000000 </v>
   <v>       0.04166667      -0.25000000       0.00000000 </v>
   <v>       0.08333333      -0.25000000       0.00000000 </v>
   <v>       0.12500000      -0.25000000       0.00000000 </v>
   <v>       0.16666667      -0.25000000       0.00000000 </v>
   <v>       0.20833333      -0.25000000       0.00000000 </v>
   <v>       0.25000000      -0.25000000       0.00000000 </v>
   <v>       0.29166667      -0.25000000       0.00000000 </v>
   <v>       0.33333333      -0.25000000       0.00000000 </v>
   <v>       0.37500000      -0.25000000       0.00000000 </v>
   <v>       0.41666667      -0.25000000       0.00000000 </v>
   <v>       0.45833333      -0.25000000       0.00000000 </v>
   <v>       0.50000000      -0.25000000       0.00000000 </v>
   <v>      -0.45833333      -0.25000000       0.00000000 </v>
   <v>      -0.41666667      -0.25000000       0.00000000 </v>
   <v>      -0.37500000      -0.25000000       0.00000000 </v>
   <v>      -0.33333333      -0.25000000       0.00000000 </v>
   <v>      -0.29166667      -0.25000000       0.00000000 </v>
   <v>      -0.25000000      -0.25000000       0.00000000 </v>
   <v>      -0.20833333      -0.25000000       0.00000000 </v>
   <v>      -0.16666667      -0.25000000       0.00000000 </v>
   <v>      -0.12500000      -0.25000000       0.00000000 </v>
   <v>      -0.08333333      -0.25000000       0.00000000 </v>
   <v>      -0.04166667      -0.25000000       0.00000000 </v>
   <v>       0.00000000      -0.20833333       0.00000000 </v>
   <v>       0.04166667      -0.20833333       0.00000000 </v>
   <v>       0.08333333      -0.20833333       0.00000000 </v>
   <v>       0.12500000      -0.20833333       0.00000000 </v>
   <v>       0.16666667      -0.20833333       0.00000000 </v>
   <v>       0.20833333      -0.20833333       0.00000000 </v>
   <v>       0.25000000      -0.20833333       0.00000000 </v>
   <v>       0.29166667      -0.20833333       0.00000000 </v>
   <v>       0.33333333      -0.20833333       0.00000000 </v>
   <v>       0.37500000      -0.20833333       0.00000000 </v>
   <v>       0.41666667      -0.20833333       0.00000000 </v>
   <v>       0.45833333      -0.20833333       0.00000000 </v>
   <v>       0.50000000      -0.20833333       0.00000000 </v>
   <v>      -0.45833333      -0.20833333       0.00000000 </v>
   <v>      -0.41666667      -0.20833333       0.00000000 </v>
   <v>      -0.37500000      -0.20833333       0.00000000 </v>
   <v>      -0.33333333      -0.20833333       0.00000000 </v>
   <v>      -0.29166667      -0.20833333       0.00000000 </v>
   <v>      -0.25000000      -0.20833333       0.00000000 </v>
   <v>      -0.20833333      -0.20833333       0.00000000 </v>
   <v>      -0.16666667      -0.20833333       0.00000000 </v>
   <v>      -0.12500000      -0.20833333       0.00000000 </v>
   <v>      -0.08333333      -0.20833333       0.00000000 </v>
   <v>      -0.04166667      -0.20833333       0.00000000 </v>
   <v>       0.00000000      -0.16666667       0.00000000 </v>
   <v>       0.04166667      -0.16666667       0.00000000 </v>
   <v>       0.08333333      -0.16666667       0.00000000 </v>
   <v>       0.12500000      -0.16666667       0.00000000 </v>
   <v>       0.16666667      -0.16666667       0.00000000 </v>
   <v>       0.20833333      -0.16666667       0.00000000 </v>
   <v>       0.25000000      -0.16666667       0.00000000 </v>
   <v>       0.29166667      -0.16666667       0.00000000 </v>
   <v>       0.33333333      -0.16666667       0.00000000 </v>
   <v>       0.37500000      -0.16666667       0.00000000 </v>
   <v>       0.41666667      -0.16666667       0.00000000 </v>
   <v>       0.45833333      -0.16666667       0.00000000 </v>
   <v>       0.50000000      -0.16666667       0.00000000 </v>
   <v>      -0.45833333      -0.16666667       0.00000000 </v>
   <v>      -0.41666667      -0.16666667       0.00000000 </v>
   <v>      -0.37500000      -0.16666667       0.00000000 </v>
   <v>      -0.33333333      -0.16666667       0.00000000 </v>
   <v>      -0.29166667      -0.16666667       0.00000000 </v>
   <v>      -0.25000000      -0.16666667       0.00000000 </v>
   <v>      -0.20833333      -0.16666667       0.00000000 </v>
   <v>      -0.16666667      -0.16666667       0.00000000 </v>
   <v>      -0.12500000      -0.16666667       0.00000000 </v>
   <v>      -0.08333333      -0.16666667       0.00000000 </v>
   <v>      -0.04166667      -0.16666667       0.00000000 </v>
   <v>       0.00000000      -0.12500000       0.00000000 </v>
   <v>       0.04166667      -0.12500000       0.00000000 </v>
   <v>       0.08333333      -0.12500000       0.00000000 </v>
   <v>       0.12500000      -0.12500000       0.00000000 </v>
   <v>       0.16666667      -0.12500000       0.00000000 </v>
   <v>       0.20833333      -0.12500000       0.00000000 </v>
   <v>       0.25000000      -0.12500000       0.00000000 </v>
   <v>       0.29166667      -0.12500000       0.00000000 </v>
   <v>       0.33333333      -0.12500000       0.00000000 </v>
   <v>       0.37500000      -0.12500000       0.00000000 </v>
   <v>       0.41666667      -0.12500000       0.00000000 </v>
   <v>       0.45833333      -0.12500000       0.00000000 </v>
   <v>       0.50000000      -0.12500000       0.00000000 </v>
   <v>      -0.45833333      -0.12500000       0.00000000 </v>
   <v>      -0.41666667      -0.12500000       0.00000000 </v>
   <v>      -0.37500000      -0.12500000       0.00000000 </v>
   <v>      -0.33333333      -0.12500000       0.00000000 </v>
   <v>      -0.29166667      -0.12500000       0.00000000 </v>
   <v>      -0.25000000      -0.12500000       0.00000000 </v>
   <v>      -0.20833333      -0.12500000       0.00000000 </v>
   <v>      -0.16666667      -0.12500000       0.00000000 </v>
   <v>      -0.12500000      -0.12500000       0.00000000 </v>
   <v>      -0.08333333      -0.12500000       0.00000000 </v>
   <v>      -0.04166667      -0.12500000       0.00000000 </v>
   <v>       0.00000000      -0.08333333       0.00000000 </v>
   <v>       0.04166667      -0.08333333       0.00000000 </v>
   <v>       0.08333333      -0.08333333       0.00000000 </v>
   <v>       0.12500000      -0.08333333       0.00000000 </v>
   <v>       0.16666667      -0.08333333       0.00000000 </v>
   <v>       0.20833333      -0.08333333       0.00000000 </v>
   <v>       0.25000000      -0.08333333       0.00000000 </v>
   <v>       0.29166667      -0.08333333       0.00000000 </v>
   <v>       0.33333333      -0.08333333       0.00000000 </v>
   <v>       0.37500000      -0.08333333       0.00000000 </v>
   <v>       0.41666667      -0.08333333       0.00000000 </v>
   <v>       0.45833333      -0.08333333       0.00000000 </v>
   <v>       0.50000000      -0.08333333       0.00000000 </v>
   <v>      -0.45833333      -0.08333333       0.00000000 </v>
   <v>      -0.41666667      -0.08333333       0.00000000 </v>
   <v>      -0.37500000      -0.08333333       0.00000000 </v>
   <v>      -0.33333333      -0.08333333       0.00000000 </v>
   <v>      -0.29166667      -0.08333333       0.00000000 </v>
   <v>      -0.25000000      -0.08333333       0.00000000 </v>
   <v>      -0.20833333      -0.08333333       0.00000000 </v>
   <v>      -0.16666667      -0.08333333       0.00000000 </v>
   <v>      -0.12500000      -0.08333333       0.00000000 </v>
   <v>      -0.08333333      -0.08333333       0.00000000 </v>
   <v>      -0.04166667      -0.08333333       0.00000000 </v>
   <v>      -0.00000000      -0.04166667       0.00000000 </v>
   <v>       0.04166667      -0.04166667       0.00000000 </v>
   <v>       0.08333333      -0.04166667       0.00000000 </v>
   <v>       0.12500000      -0.04166667       0.00000000 </v>
   <v>       0.16666667      -0.04166667       0.00000000 </v>
   <v>       0.20833333      -0.04166667       0.00000000 </v>
   <v>       0.25000000      -0.04166667       0.00000000 </v>
   <v>       0.29166667      -0.04166667       0.00000000 </v>
   <v>       0.33333333      -0.04166667       0.00000000 </v>
   <v>       0.37500000      -0.04166667       0.00000000 </v>
   <v>       0.41666667      -0.04166667       0.00000000 </v>
   <v>       0.45833333      -0.04166667       0.00000000 </v>
   <v>       0.50000000      -0.04166667       0.00000000 </v>
   <v>      -0.45833333      -0.04166667       0.00000000 </v>
   <v>      -0.41666667      -0.04166667       0.00000000 </v>
   <v>      -0.37500000      -0.04166667       0.00000000 </v>
   <v>      -0.33333333      -0.04166667       0.00000000 </v>
   <v>      -0.29166667      -0.04166667       0.00000000 </v>
   <v>      -0.25000000      -0.04166667       0.00000000 </v>
   <v>      -0.20833333      -0.04166667       0.00000000 </v>
   <v>      -0.16666667      -0.04166667       0.00000000 </v>
   <v>      -0.12500000      -0.04166667       0.00000000 </v>
   <v>      -0.08333333      -0.04166667       0.00000000 </v>
   <v>      -0.04166667      -0.04166667       0.00000000 </v>
  </varray>
  <varray name="weights" >
   <v>       0.00173611 </v>
   <v>       0.00173611 </v>
   <v>       0.00173611 </v>
   <v>       0.00173611 </v>
   <v>       0.00173611 </v>
   <v>       0.00173611 </v>
   <v>       0.00173611 </v>
   <v>       0.00173611 </v>
   <v>       0.00173611 </v>
   <v>       0.00173611 </v>
   <v>       0.00173611 </v>
   <v>       0.00173611 </v>
   <v>       0.00173611 </v>
   <v>       0.00173611 </v>
   <v>       0.00173611 </v>
   <v>       0.00173611 </v>
   <v>       0.00173611 </v>
   <v>       0.00173611 </v>
   <v>       0.00173611 </v>
   <v>       0.00173611 </v>
   <v>       0.00173611 </v>
   <v>       0.00173611 </v>
   <v>       0.00173611 </v>
   <v>       0.00173611 </v>
   <v>       0.00173611 </v>
   <v>       0.00173611 </v>
   <v>       0.00173611 </v>
   <v>       0.00173611 </v>
   <v>       0.00173611 </v>
   <v>       0.00173611 </v>
   <v>       0.00173611 </v>
   <v>       0.00173611 </v>
   <v>       0.00173611 </v>
   <v>       0.00173611 </v>
   <v>       0.00173611 </v>
   <v>       0.00173611 </v>
   <v>       0.00173611 </v>
   <v>       0.00173611 </v>
   <v>       0.00173611 </v>
   <v>       0.00173611 </v>
   <v>       0.00173611 </v>
   <v>       0.00173611 </v>
   <v>       0.00173611 </v>
   <v>       0.00173611 </v>
   <v>       0.00173611 </v>
   <v>       0.00173611 </v>
   <v>       0.00173611 </v>
   <v>       0.00173611 </v>
   <v>       0.00173611 </v>
   <v>       0.00173611 </v>
   <v>       0.00173611 </v>
   <v>       0.00173611 </v>
   <v>       0.00173611 </v>
   <v>       0.00173611 </v>
   <v>       0.00173611 </v>
   <v>       0.00173611 </v>
   <v>       0.00173611 </v>
   <v>       0.00173611 </v>
   <v>       0.00173611 </v>
   <v>       0.00173611 </v>
   <v>       0.00173611 </v>
   <v>       0.00173611 </v>
   <v>       0.00173611 </v>
   <v>       0.00173611 </v>
   <v>       0.00173611 </v>
   <v>       0.00173611 </v>
   <v>       0.00173611 </v>
   <v>       0.00173611 </v>
   <v>       0.00173611 </v>
   <v>       0.00173611 </v>
   <v>       0.00173611 </v>
   <v>       0.00173611 </v>
   <v>       0.00173611 </v>
   <v>       0.00173611 </v>
   <v>       0.00173611 </v>
   <v>       0.00173611 </v>
   <v>       0.00173611 </v>
   <v>       0.00173611 </v>
   <v>       0.00173611 </v>
   <v>       0.00173611 </v>
   <v>       0.00173611 </v>
   <v>       0.00173611 </v>
   <v>       0.00173611 </v>
   <v>       0.00173611 </v>
   <v>       0.00173611 </v>
   <v>       0.00173611 </v>
   <v>       0.00173611 </v>
   <v>       0.00173611 </v>
   <v>       0.00173611 </v>
   <v>       0.00173611 </v>
   <v>       0.00173611 </v>
   <v>       0.00173611 </v>
   <v>       0.00173611 </v>
   <v>       0.00173611 </v>
   <v>       0.00173611 </v>
   <v>       0.00173611 </v>
   <v>       0.00173611 </v>
   <v>       0.00173611 </v>
   <v>       0.00173611 </v>
   <v>       0.00173611 </v>
   <v>       0.00173611 </v>
   <v>       0.00173611 </v>
   <v>       0.00173611 </v>
   <v>       0.00173611 </v>
   <v>       0.00173611 </v>
   <v>       0.00173611 </v>
   <v>       0.00173611 </v>
   <v>       0.00173611 </v>
   <v>       0.00173611 </v>
   <v>       0.00173611 </v>
   <v>       0.00173611 </v>
   <v>       0.00173611 </v>
   <v>       0.00173611 </v>
   <v>       0.00173611 </v>
   <v>       0.00173611 </v>
   <v>       0.00173611 </v>
   <v>       0.00173611 </v>
   <v>       0.00173611 </v>
   <v>       0.00173611 </v>
   <v>       0.00173611 </v>
   <v>       0.00173611 </v>
   <v>       0.00173611 </v>
   <v>       0.00173611 </v>
   <v>       0.00173611 </v>
   <v>       0.00173611 </v>
   <v>       0.00173611 </v>
   <v>       0.00173611 </v>
   <v>       0.00173611 </v>
   <v>       0.00173611 </v>
   <v>       0.00173611 </v>
   <v>       0.00173611 </v>
   <v>       0.00173611 </v>
   <v>       0.00173611 </v>
   <v>       0.00173611 </v>
   <v>       0.00173611 </v>
   <v>       0.00173611 </v>
   <v>       0.00173611 </v>
   <v>       0.00173611 </v>
   <v>       0.00173611 </v>
   <v>       0.00173611 </v>
   <v>       0.00173611 </v>
   <v>       0.00173611 </v>
   <v>       0.00173611 </v>
   <v>       0.00173611 </v>
   <v>       0.00173611 </v>
   <v>       0.00173611 </v>
   <v>       0.00173611 </v>
   <v>       0.00173611 </v>
   <v>       0.00173611 </v>
   <v>       0.00173611 </v>
   <v>       0.00173611 </v>
   <v>       0.00173611 </v>
   <v>       0.00173611 </v>
   <v>       0.00173611 </v>
   <v>       0.00173611 </v>
   <v>       0.00173611 </v>
   <v>       0.00173611 </v>
   <v>       0.00173611 </v>
   <v>       0.00173611 </v>
   <v>       0.00173611 </v>
   <v>       0.00173611 </v>
   <v>       0.00173611 </v>
   <v>       0.00173611 </v>
   <v>       0.00173611 </v>
   <v>       0.00173611 </v>
   <v>       0.00173611 </v>
   <v>       0.00173611 </v>
   <v>       0.00173611 </v>
   <v>       0.00173611 </v>
   <v>       0.00173611 </v>
   <v>       0.00173611 </v>
   <v>       0.00173611 </v>
   <v>       0.00173611 </v>
   <v>       0.00173611 </v>
   <v>       0.00173611 </v>
   <v>       0.00173611 </v>
   <v>       0.00173611 </v>
   <v>       0.00173611 </v>
   <v>       0.00173611 </v>
   <v>       0.00173611 </v>
   <v>       0.00173611 </v>
   <v>       0.00173611 </v>
   <v>       0.00173611 </v>
   <v>       0.00173611 </v>
   <v>       0.00173611 </v>
   <v>       0.00173611 </v>
   <v>       0.00173611 </v>
   <v>       0.00173611 </v>
   <v>       0.00173611 </v>
   <v>       0.00173611 </v>
   <v>       0.00173611 </v>
   <v>       0.00173611 </v>
   <v>       0.00173611 </v>
   <v>       0.00173611 </v>
   <v>       0.00173611 </v>
   <v>       0.00173611 </v>
   <v>       0.00173611 </v>
   <v>       0.00173611 </v>
   <v>       0.00173611 </v>
   <v>       0.00173611 </v>
   <v>       0.00173611 </v>
   <v>       0.00173611 </v>
   <v>       0.00173611 </v>
   <v>       0.00173611 </v>
   <v>       0.00173611 </v>
   <v>       0.00173611 </v>
   <v>       0.00173611 </v>
   <v>       0.00173611 </v>
   <v>       0.00173611 </v>
   <v>       0.00173611 </v>
   <v>       0.00173611 </v>
   <v>       0.00173611 </v>
   <v>       0.00173611 </v>
   <v>       0.00173611 </v>
   <v>       0.00173611 </v>
   <v>       0.00173611 </v>
   <v>       0.00173611 </v>
   <v>       0.00173611 </v>
   <v>       0.00173611 </v>
   <v>       0.00173611 </v>
   <v>       0.00173611 </v>
   <v>       0.00173611 </v>
   <v>       0.00173611 </v>
   <v>       0.00173611 </v>
   <v>       0.00173611 </v>
   <v>       0.00173611 </v>
   <v>       0.00173611 </v>
   <v>       0.00173611 </v>
   <v>       0.00173611 </v>
   <v>       0.00173611 </v>
   <v>       0.00173611 </v>
   <v>       0.00173611 </v>
   <v>       0.00173611 </v>
   <v>       0.00173611 </v>
   <v>       0.00173611 </v>
   <v>       0.00173611 </v>
   <v>       0.00173611 </v>
   <v>       0.00173611 </v>
   <v>       0.00173611 </v>
   <v>       0.00173611 </v>
   <v>       0.00173611 </v>
   <v>       0.00173611 </v>
   <v>       0.00173611 </v>
   <v>       0.00173611 </v>
   <v>       0.00173611 </v>
   <v>       0.00173611 </v>
   <v>       0.00173611 </v>
   <v>       0.00173611 </v>
   <v>       0.00173611 </v>
   <v>       0.00173611 </v>
   <v>       0.00173611 </v>
   <v>       0.00173611 </v>
   <v>       0.00173611 </v>
   <v>       0.00173611 </v>
   <v>       0.00173611 </v>
   <v>       0.00173611 </v>
   <v>       0.00173611 </v>
   <v>       0.00173611 </v>
   <v>       0.00173611 </v>
   <v>       0.00173611 </v>
   <v>       0.00173611 </v>
   <v>       0.00173611 </v>
   <v>       0.00173611 </v>
   <v>       0.00173611 </v>
   <v>       0.00173611 </v>
   <v>       0.00173611 </v>
   <v>       0.00173611 </v>
   <v>       0.00173611 </v>
   <v>       0.00173611 </v>
   <v>       0.00173611 </v>
   <v>       0.00173611 </v>
   <v>       0.00173611 </v>
   <v>       0.00173611 </v>
   <v>       0.00173611 </v>
   <v>       0.00173611 </v>
   <v>       0.00173611 </v>
   <v>       0.00173611 </v>
   <v>       0.00173611 </v>
   <v>       0.00173611 </v>
   <v>       0.00173611 </v>
   <v>       0.00173611 </v>
   <v>       0.00173611 </v>
   <v>       0.00173611 </v>
   <v>       0.00173611 </v>
   <v>       0.00173611 </v>
   <v>       0.00173611 </v>
   <v>       0.00173611 </v>
   <v>       0.00173611 </v>
   <v>       0.00173611 </v>
   <v>       0.00173611 </v>
   <v>       0.00173611 </v>
   <v>       0.00173611 </v>
   <v>       0.00173611 </v>
   <v>       0.00173611 </v>
   <v>       0.00173611 </v>
   <v>       0.00173611 </v>
   <v>       0.00173611 </v>
   <v>       0.00173611 </v>
   <v>       0.00173611 </v>
   <v>       0.00173611 </v>
   <v>       0.00173611 </v>
   <v>       0.00173611 </v>
   <v>       0.00173611 </v>
   <v>       0.00173611 </v>
   <v>       0.00173611 </v>
   <v>       0.00173611 </v>
   <v>       0.00173611 </v>
   <v>       0.00173611 </v>
   <v>       0.00173611 </v>
   <v>       0.00173611 </v>
   <v>       0.00173611 </v>
   <v>       0.00173611 </v>
   <v>       0.00173611 </v>
   <v>       0.00173611 </v>
   <v>       0.00173611 </v>
   <v>       0.00173611 </v>
   <v>       0.00173611 </v>
   <v>       0.00173611 </v>
   <v>       0.00173611 </v>
   <v>       0.00173611 </v>
   <v>       0.00173611 </v>
   <v>       0.00173611 </v>
   <v>       0.00173611 </v>
   <v>       0.00173611 </v>
   <v>       0.00173611 </v>
   <v>       0.00173611 </v>
   <v>       0.00173611 </v>
   <v>       0.00173611 </v>
   <v>       0.00173611 </v>
   <v>       0.00173611 </v>
   <v>       0.00173611 </v>
   <v>       0.00173611 </v>
   <v>       0.00173611 </v>
   <v>       0.00173611 </v>
   <v>       0.00173611 </v>
   <v>       0.00173611 </v>
   <v>       0.00173611 </v>
   <v>       0.00173611 </v>
   <v>       0.00173611 </v>
   <v>       0.00173611 </v>
   <v>       0.00173611 </v>
   <v>       0.00173611 </v>
   <v>       0.00173611 </v>
   <v>       0.00173611 </v>
   <v>       0.00173611 </v>
   <v>       0.00173611 </v>
   <v>       0.00173611 </v>
   <v>       0.00173611 </v>
   <v>       0.00173611 </v>
   <v>       0.00173611 </v>
   <v>       0.00173611 </v>
   <v>       0.00173611 </v>
   <v>       0.00173611 </v>
   <v>       0.00173611 </v>
   <v>       0.00173611 </v>
   <v>       0.00173611 </v>
   <v>       0.00173611 </v>
   <v>       0.00173611 </v>
   <v>       0.00173611 </v>
   <v>       0.00173611 </v>
   <v>       0.00173611 </v>
   <v>       0.00173611 </v>
   <v>       0.00173611 </v>
   <v>       0.00173611 </v>
   <v>       0.00173611 </v>
   <v>       0.00173611 </v>
   <v>       0.00173611 </v>
   <v>       0.00173611 </v>
   <v>       0.00173611 </v>
   <v>       0.00173611 </v>
   <v>       0.00173611 </v>
   <v>       0.00173611 </v>
   <v>       0.00173611 </v>
   <v>       0.00173611 </v>
   <v>       0.00173611 </v>
   <v>       0.00173611 </v>
   <v>       0.00173611 </v>
   <v>       0.00173611 </v>
   <v>       0.00173611 </v>
   <v>       0.00173611 </v>
   <v>       0.00173611 </v>
   <v>       0.00173611 </v>
   <v>       0.00173611 </v>
   <v>       0.00173611 </v>
   <v>       0.00173611 </v>
   <v>       0.00173611 </v>
   <v>       0.00173611 </v>
   <v>       0.00173611 </v>
   <v>       0.00173611 </v>
   <v>       0.00173611 </v>
   <v>       0.00173611 </v>
   <v>       0.00173611 </v>
   <v>       0.00173611 </v>
   <v>       0.00173611 </v>
   <v>       0.00173611 </v>
   <v>       0.00173611 </v>
   <v>       0.00173611 </v>
   <v>       0.00173611 </v>
   <v>       0.00173611 </v>
   <v>       0.00173611 </v>
   <v>       0.00173611 </v>
   <v>       0.00173611 </v>
   <v>       0.00173611 </v>
   <v>       0.00173611 </v>
   <v>       0.00173611 </v>
   <v>       0.00173611 </v>
   <v>       0.00173611 </v>
   <v>       0.00173611 </v>
   <v>       0.00173611 </v>
   <v>       0.00173611 </v>
   <v>       0.00173611 </v>
   <v>       0.00173611 </v>
   <v>       0.00173611 </v>
   <v>       0.00173611 </v>
   <v>       0.00173611 </v>
   <v>       0.00173611 </v>
   <v>       0.00173611 </v>
   <v>       0.00173611 </v>
   <v>       0.00173611 </v>
   <v>       0.00173611 </v>
   <v>       0.00173611 </v>
   <v>       0.00173611 </v>
   <v>       0.00173611 </v>
   <v>       0.00173611 </v>
   <v>       0.00173611 </v>
   <v>       0.00173611 </v>
   <v>       0.00173611 </v>
   <v>       0.00173611 </v>
   <v>       0.00173611 </v>
   <v>       0.00173611 </v>
   <v>       0.00173611 </v>
   <v>       0.00173611 </v>
   <v>       0.00173611 </v>
   <v>       0.00173611 </v>
   <v>       0.00173611 </v>
   <v>       0.00173611 </v>
   <v>       0.00173611 </v>
   <v>       0.00173611 </v>
   <v>       0.00173611 </v>
   <v>       0.00173611 </v>
   <v>       0.00173611 </v>
   <v>       0.00173611 </v>
   <v>       0.00173611 </v>
   <v>       0.00173611 </v>
   <v>       0.00173611 </v>
   <v>       0.00173611 </v>
   <v>       0.00173611 </v>
   <v>       0.00173611 </v>
   <v>       0.00173611 </v>
   <v>       0.00173611 </v>
   <v>       0.00173611 </v>
   <v>       0.00173611 </v>
   <v>       0.00173611 </v>
   <v>       0.00173611 </v>
   <v>       0.00173611 </v>
   <v>       0.00173611 </v>
   <v>       0.00173611 </v>
   <v>       0.00173611 </v>
   <v>       0.00173611 </v>
   <v>       0.00173611 </v>
   <v>       0.00173611 </v>
   <v>       0.00173611 </v>
   <v>       0.00173611 </v>
   <v>       0.00173611 </v>
   <v>       0.00173611 </v>
   <v>       0.00173611 </v>
   <v>       0.00173611 </v>
   <v>       0.00173611 </v>
   <v>       0.00173611 </v>
   <v>       0.00173611 </v>
   <v>       0.00173611 </v>
   <v>       0.00173611 </v>
   <v>       0.00173611 </v>
   <v>       0.00173611 </v>
   <v>       0.00173611 </v>
   <v>       0.00173611 </v>
   <v>       0.00173611 </v>
   <v>       0.00173611 </v>
   <v>       0.00173611 </v>
   <v>       0.00173611 </v>
   <v>       0.00173611 </v>
   <v>       0.00173611 </v>
   <v>       0.00173611 </v>
   <v>       0.00173611 </v>
   <v>       0.00173611 </v>
   <v>       0.00173611 </v>
   <v>       0.00173611 </v>
   <v>       0.00173611 </v>
   <v>       0.00173611 </v>
   <v>       0.00173611 </v>
   <v>       0.00173611 </v>
   <v>       0.00173611 </v>
   <v>       0.00173611 </v>
   <v>       0.00173611 </v>
   <v>       0.00173611 </v>
   <v>       0.00173611 </v>
   <v>       0.00173611 </v>
   <v>       0.00173611 </v>
   <v>       0.00173611 </v>
   <v>       0.00173611 </v>
   <v>       0.00173611 </v>
   <v>       0.00173611 </v>
   <v>       0.00173611 </v>
   <v>       0.00173611 </v>
   <v>       0.00173611 </v>
   <v>       0.00173611 </v>
   <v>       0.00173611 </v>
   <v>       0.00173611 </v>
   <v>       0.00173611 </v>
   <v>       0.00173611 </v>
   <v>       0.00173611 </v>
   <v>       0.00173611 </v>
   <v>       0.00173611 </v>
   <v>       0.00173611 </v>
   <v>       0.00173611 </v>
   <v>       0.00173611 </v>
   <v>       0.00173611 </v>
   <v>       0.00173611 </v>
   <v>       0.00173611 </v>
   <v>       0.00173611 </v>
   <v>       0.00173611 </v>
   <v>       0.00173611 </v>
   <v>       0.00173611 </v>
   <v>       0.00173611 </v>
   <v>       0.00173611 </v>
   <v>       0.00173611 </v>
   <v>       0.00173611 </v>
   <v>       0.00173611 </v>
   <v>       0.00173611 </v>
   <v>       0.00173611 </v>
   <v>       0.00173611 </v>
   <v>       0.00173611 </v>
   <v>       0.00173611 </v>
   <v>       0.00173611 </v>
   <v>       0.00173611 </v>
   <v>       0.00173611 </v>
   <v>       0.00173611 </v>
   <v>       0.00173611 </v>
   <v>       0.00173611 </v>
   <v>       0.00173611 </v>
   <v>       0.00173611 </v>
   <v>       0.00173611 </v>
   <v>       0.00173611 </v>
   <v>       0.00173611 </v>
   <v>       0.00173611 </v>
   <v>       0.00173611 </v>
   <v>       0.00173611 </v>
   <v>       0.00173611 </v>
   <v>       0.00173611 </v>
   <v>       0.00173611 </v>
   <v>       0.00173611 </v>
   <v>       0.00173611 </v>
   <v>       0.00173611 </v>
   <v>       0.00173611 </v>
   <v>       0.00173611 </v>
   <v>       0.00173611 </v>
   <v>       0.00173611 </v>
   <v>       0.00173611 </v>
   <v>       0.00173611 </v>
   <v>       0.00173611 </v>
   <v>       0.00173611 </v>
   <v>       0.00173611 </v>
   <v>       0.00173611 </v>
   <v>       0.00173611 </v>
   <v>       0.00173611 </v>
   <v>       0.00173611 </v>
   <v>       0.00173611 </v>
   <v>       0.00173611 </v>
   <v>       0.00173611 </v>
   <v>       0.00173611 </v>
   <v>       0.00173611 </v>
   <v>       0.00173611 </v>
   <v>       0.00173611 </v>
   <v>       0.00173611 </v>
   <v>       0.00173611 </v>
   <v>       0.00173611 </v>
  </varray>
 </kpoints>
 <parameters>
  <separator name="general" >
   <i type="string" name="SYSTEM">MoS2 SOC SCF (high-res, 24x24x1)</i>
   <i type="logical" name="LCOMPAT"> F  </i>
  </separator>
  <separator name="electronic" >
   <i type="string" name="PREC">accura</i>
   <i name="ENMAX">    600.00000000</i>
   <i name="ENAUG">    392.42700000</i>
   <i name="EDIFF">      0.00000010</i>
   <i type="int" name="IALGO">    58</i>
   <i type="int" name="IWAVPR">    10</i>
   <i type="int" name="NBANDS">    40</i>
   <i name="NELECT">     24.00000000</i>
   <i type="int" name="TURBO">     0</i>
   <i type="int" name="IRESTART">     0</i>
   <i type="int" name="NREBOOT">     0</i>
   <i type="int" name="NMIN">     0</i>
   <i name="EREF">      0.00000000</i>
   <separator name="electronic smearing" >
    <i type="int" name="ISMEAR">     0</i>
    <i name="SIGMA">      0.03000000</i>
    <i name="KSPACING">      0.50000000</i>
    <i type="logical" name="KGAMMA"> T  </i>
   </separator>
   <separator name="electronic projectors" >
    <i type="logical" name="LREAL"> F  </i>
    <v name="ROPT">      0.00000000      0.00000000</v>
    <i type="int" name="LMAXPAW">  -100</i>
    <i type="int" name="LMAXMIX">     4</i>
    <i type="logical" name="NLSPLINE"> F  </i>
   </separator>
   <separator name="electronic startup" >
    <i type="int" name="ISTART">     1</i>
    <i type="int" name="ICHARG">    11</i>
    <i type="int" name="INIWAV">     1</i>
   </separator>
   <separator name="electronic spin" >
    <i type="int" name="ISPIN">     1</i>
    <i type="logical" name="LNONCOLLINEAR"> T  </i>
    <v name="MAGMOM">      1.00000000      1.00000000      1.00000000      1.00000000      1.00000000      1.00000000      1.00000000      1.00000000      1.00000000</v>
    <i name="NUPDOWN">     -1.00000000</i>
    <i type="logical" name="LSORBIT"> T  </i>
    <v name="SAXIS">      0.00000000      0.00000000      1.00000000</v>
    <i type="logical" name="LSPIRAL"> F  </i>
    <v name="QSPIRAL">      0.00000000      0.00000000      0.00000000</v>
    <i type="logical" name="LZEROZ"> F  </i>
   </separator>
   <separator name="electronic exchange-correlation" >
    <i type="logical" name="LASPH"> T  </i>
    <i type="logical" name="LMETAGGA"> F  </i>
   </separator>
   <separator name="electronic convergence" >
    <i type="int" name="NELM">   200</i>
    <i type="int" name="NELMDL">     0</i>
    <i type="int" name="NELMIN">     2</i>
    <i name="ENINI">    600.00000000</i>
    <separator name="electronic convergence detail" >
     <i type="logical" name="LDIAG"> T  </i>
     <i type="logical" name="LSUBROT"> F  </i>
     <i name="WEIMIN">      0.00000000</i>
     <i name="EBREAK">      0.00000000</i>
     <i name="DEPER">      0.30000000</i>
     <i type="int" name="NRMM">     4</i>
     <i name="TIME">      0.40000000</i>
    </separator>
   </separator>
   <separator name="electronic mixer" >
    <i name="AMIX">      0.20000000</i>
    <i name="BMIX">      0.00010000</i>
    <i name="AMIN">      0.10000000</i>
    <i name="AMIX_MAG">      0.20000000</i>
    <i name="BMIX_MAG">      0.00010000</i>
    <separator name="electronic mixer details" >
     <i type="int" name="IMIX">     4</i>
     <i type="logical" name="MIXFIRST"> F  </i>
     <i type="int" name="MAXMIX">   -45</i>
     <i name="WC">    100.00000000</i>
     <i type="int" name="INIMIX">     1</i>
     <i type="int" name="MIXPRE">     1</i>
     <i type="int" name="MREMOVE">     5</i>
    </separator>
   </separator>
   <separator name="electronic dipolcorrection" >
    <i type="logical" name="LDIPOL"> T  </i>
    <i type="logical" name="LMONO"> F  </i>
    <i type="int" name="IDIPOL">     3</i>
    <i name="EPSILON">      1.00000000</i>
    <v name="DIPOL">      0.50000000      0.50000000      0.50000000</v>
    <i name="EFIELD">      0.00000000</i>
   </separator>
  </separator>
  <separator name="grids" >
   <i type="int" name="NGX">    28</i>
   <i type="int" name="NGY">    28</i>
   <i type="int" name="NGZ">   280</i>
   <i type="int" name="NGXF">    56</i>
   <i type="int" name="NGYF">    56</i>
   <i type="int" name="NGZF">   560</i>
   <i type="logical" name="ADDGRID"> F  </i>
  </separator>
  <separator name="ionic" >
   <i type="int" name="NSW">     0</i>
   <i type="int" name="IBRION">    -1</i>
   <i type="int" name="ISIF">     2</i>
   <i name="PSTRESS">      0.00000000</i>
   <i name="EDIFFG">      0.00000100</i>
   <i type="int" name="NFREE">     0</i>
   <i name="POTIM">      0.50000000</i>
   <i name="SMASS">     -3.00000000</i>
   <i name="SCALEE">      1.00000000</i>
  </separator>
  <separator name="ionic md" >
   <i name="TEBEG">      0.00010000</i>
   <i name="TEEND">      0.00010000</i>
   <i type="int" name="NBLOCK">     1</i>
   <i type="int" name="KBLOCK">     1</i>
   <i type="int" name="NPACO">   256</i>
   <i name="APACO">     16.00000000</i>
  </separator>
  <separator name="symmetry" >
   <i type="int" name="ISYM">     0</i>
   <i name="SYMPREC">      0.00001000</i>
  </separator>
  <separator name="dos" >
   <i type="logical" name="LORBIT"> F  </i>
   <v name="RWIGS">     -1.00000000     -1.00000000</v>
   <i type="int" name="NEDOS">   301</i>
   <i name="EMIN">     10.00000000</i>
   <i name="EMAX">    -10.00000000</i>
   <i name="EFERMI">      0.00000000</i>
  </separator>
  <separator name="writing" >
   <i type="int" name="NWRITE">     3</i>
   <i type="logical" name="LWAVE"> T  </i>
   <i type="logical" name="LCHARG"> T  </i>
   <i type="logical" name="LPARD"> F  </i>
   <i type="logical" name="LVTOT"> F  </i>
   <i type="logical" name="LVHAR"> F  </i>
   <i type="logical" name="LELF"> F  </i>
   <i type="logical" name="LOPTICS"> F  </i>
   <v name="STM">      0.00000000      0.00000000      0.00000000      0.00000000      0.00000000      0.00000000      0.00000000</v>
  </separator>
  <separator name="performance" >
   <i type="int" name="NPAR">     8</i>
   <i type="int" name="NSIM">     4</i>
   <i type="int" name="NBLK">    -1</i>
   <i type="logical" name="LPLANE"> T  </i>
   <i type="logical" name="LSCALAPACK"> T  </i>
   <i type="logical" name="LSCAAWARE"> F  </i>
   <i type="logical" name="LSCALU"> F  </i>
   <i type="logical" name="LASYNC"> F  </i>
   <i type="logical" name="LORBITALREAL"> F  </i>
  </separator>
  <separator name="miscellaneous" >
   <i type="int" name="IDIOT">     3</i>
   <i type="logical" name="LMUSIC"> F  </i>
   <v name="POMASS">     95.94000000     32.06600000</v>
   <v name="DARWINR">      0.00000000      0.00000000</v>
   <v name="DARWINV">      1.00000000      1.00000000</v>
   <i type="logical" name="LCORR"> T  </i>
  </separator>
  <i type="logical" name="GGA_COMPAT"> F  </i>
  <i type="logical" name="LBERRY"> F  </i>
  <i type="int" name="ICORELEVEL">     0</i>
  <i type="logical" name="LDAU"> F  </i>
  <i type="int" name="I_CONSTRAINED_M">     0</i>
  <separator name="electronic exchange-correlation" >
   <i type="string" name="GGA">--</i>
   <i type="int" name="VOSKOWN">     0</i>
   <i type="logical" name="LHFCALC"> F  </i>
   <i type="string" name="PRECFOCK"></i>
   <i type="logical" name="LSYMGRAD"> F  </i>
   <i type="logical" name="LHFONE"> F  </i>
   <i type="logical" name="LRHFCALC"> F  </i>
   <i type="logical" name="LTHOMAS"> F  </i>
   <i type="logical" name="LMODELHF"> F  </i>
   <i name="ENCUT4O">     -1.00000000</i>
   <i type="int" name="EXXOEP">     0</i>
   <i type="int" name="FOURORBIT">     0</i>
   <i name="AEXX">      0.00000000</i>
   <i name="HFALPHA">      0.00000000</i>
   <i name="MCALPHA">      0.00000000</i>
   <i name="ALDAX">      1.00000000</i>
   <i name="AGGAX">      1.00000000</i>
   <i name="ALDAC">      1.00000000</i>
   <i name="AGGAC">      1.00000000</i>
   <i type="int" name="NKREDX">     1</i>
   <i type="int" name="NKREDY">     1</i>
   <i type="int" name="NKREDZ">     1</i>
   <i type="logical" name="SHIFTRED"> F  </i>
   <i type="logical" name="ODDONLY"> F  </i>
   <i type="logical" name="EVENONLY"> F  </i>
   <i type="int" name="LMAXFOCK">     0</i>
   <i type="int" name="NMAXFOCKAE">     0</i>
   <i type="logical" name="LFOCKAEDFT"> F  </i>
   <i name="HFSCREEN">      0.00000000</i>
   <i name="HFSCREENC">      0.00000000</i>
   <i type="int" name="NBANDSGWLOW">     0</i>
  </separator>
  <separator name="vdW DFT" >
   <i type="logical" name="LUSE_VDW"> F  </i>
   <i name="Zab_VDW">     -0.84910000</i>
   <i name="PARAM1">      0.12340000</i>
   <i name="PARAM2">      1.00000000</i>
   <i name="PARAM3">      0.00000000</i>
  </separator>
  <separator name="model GW" >
   <i type="int" name="MODEL_GW">     0</i>
   <i name="MODEL_EPS0">     60.63764212</i>
   <i name="MODEL_ALPHA">      1.00000000</i>
  </separator>
  <separator name="linear response parameters" >
   <i type="logical" name="LEPSILON"> F  </i>
   <i type="logical" name="LRPA"> F  </i>
   <i type="logical" name="LNABLA"> F  </i>
   <i type="logical" name="LVEL"> F  </i>
   <i type="int" name="KINTER">     0</i>
   <i name="CSHIFT">      0.10000000</i>
   <i name="OMEGAMAX">     -1.00000000</i>
   <i name="DEG_THRESHOLD">      0.00200000</i>
  </separator>
  <separator name="orbital magnetization" >
   <i type="logical" name="NUCIND"> F  </i>
   <v name="MAGPOS">      0.00000000      0.00000000      0.00000000</v>
   <i type="logical" name="LNICSALL"> T  </i>
   <i type="logical" name="ORBITALMAG"> F  </i>
   <i type="logical" name="LMAGBLOCH"> F  </i>
   <i type="logical" name="LCHIMAG"> F  </i>
   <i type="logical" name="LGAUGE"> T  </i>
   <i type="int" name="MAGATOM">     0</i>
   <v name="MAGDIPOL">      0.00000000      0.00000000      0.00000000</v>
   <v name="AVECCONST">      0.00000000      0.00000000      0.00000000</v>
  </separator>
  <separator name="response functions" >
   <i type="logical" name="LADDER"> F  </i>
   <i type="logical" name="LFXC"> F  </i>
   <i type="logical" name="LHARTREE"> T  </i>
   <i type="int" name="IBSE">     0</i>
   <v type="int" name="KPOINT">    -1     0     0     0</v>
   <i type="logical" name="LTCTE"> F  </i>
   <i type="logical" name="LTETE"> F  </i>
   <i type="logical" name="LTRIPLET"> F  </i>
   <i type="logical" name="LFXCEPS"> F  </i>
   <i type="logical" name="LFXHEG"> F  </i>
   <i type="int" name="NATURALO">     0</i>
   <i type="logical" name="L2ORDER"> F  </i>
   <i type="logical" name="LUSEW"> F  </i>
   <i name="ENCUTGW">     -2.00000000</i>
   <i name="ENCUTGWSOFT">     -2.00000000</i>
   <i name="ENCUTLF">     -1.00000000</i>
   <i type="int" name="LMAXMP2">    -1</i>
   <i name="SCISSOR">      0.00000000</i>
   <i type="int" name="NOMEGA">     0</i>
   <i type="int" name="NOMEGAR">     0</i>
   <i type="int" name="NBANDSGW">    -1</i>
   <i type="int" name="NBANDSO">    -1</i>
   <i type="int" name="NBANDSV">    -1</i>
   <i type="int" name="NELM">   200</i>
   <i type="int" name="NELMHF">     1</i>
   <i type="int" name="DIM">     3</i>
   <i type="int" name="ANTIRES">     0</i>
   <i name="OMEGAMAX">    -30.00000000</i>
   <i name="OMEGAMIN">    -30.00000000</i>
   <i name="OMEGATL">   -200.00000000</i>
   <i type="int" name="OMEGAGRID">     0</i>
   <i name="CSHIFT">     -0.10000000</i>
   <i type="logical" name="SELFENERGY"> F  </i>
   <i type="logical" name="LSPECTRAL"> F  </i>
   <i type="logical" name="LSPECTRALGW"> F  </i>
   <i type="logical" name="LSINGLES"> F  </i>
   <i type="logical" name="LFERMIGW"> F  </i>
   <i type="logical" name="ODDONLYGW"> F  </i>
   <i type="logical" name="EVENONLYGW"> F  </i>
   <i type="int" name="NKREDLFX">     1</i>
   <i type="int" name="NKREDLFY">     1</i>
   <i type="int" name="NKREDLFZ">     1</i>
   <i type="int" name="MAXMEM">  1800</i>
   <i type="int" name="TELESCOPE">     0</i>
   <i type="int" name="TAUPAR">     1</i>
   <i type="int" name="OMEGAPAR">    -1</i>
   <i name="LAMBDA">      1.00000000</i>
  </separator>
  <separator name="External order field" >
   <i name="OFIELD_KAPPA">      0.00000000</i>
   <v name="OFIELD_K">      0.00000000      0.00000000      0.00000000</v>
   <i name="OFIELD_Q6_NEAR">      0.00000000</i>
   <i name="OFIELD_Q6_FAR">      0.00000000</i>
   <i name="OFIELD_A">      0.00000000</i>
  </separator>
  <separator name="solvation model" >
   <i type="logical" name="LSOL"> F  </i>
  </separator>
 </parameters>
 <atominfo>
  <atoms>       3 </atoms>
  <types>       2 </types>
  <array name="atoms" >
   <dimension dim="1">ion</dimension>
   <field type="string">element</field>
   <field type="int">atomtype</field>
   <set>
    <rc><c>Mo</c><c>   1</c></rc>
    <rc><c>S </c><c>   2</c></rc>
    <rc><c>S </c><c>   2</c></rc>
   </set>
  </array>
  <array name="atomtypes" >
   <dimension dim="1">type</dimension>
   <field type="int">atomspertype</field>
   <field type="string">element</field>
   <field>mass</field>
   <field>valence</field>
   <field type="string">pseudopotential</field>
   <set>
    <rc><c>   1</c><c>Mo</c><c>     95.94000000</c><c>     12.00000000</c><c> PAW_PBE Mo_pv 08Apr2002                </c></rc>
    <rc><c>   2</c><c>S </c><c>     32.06600000</c><c>      6.00000000</c><c>  PAW_PBE S 17Jan2003                   </c></rc>
   </set>
  </array>
 </atominfo>
 <structure name="initialpos" >
  <crystal>
   <varray name="basis" >
    <v>       1.58218970      -2.74043224       0.00000000 </v>
    <v>       1.58218970       2.74043224       0.00000000 </v>
    <v>       0.00000000       0.00000000      34.96267827 </v>
   </varray>
   <i name="volume">    303.18821061 </i>
   <varray name="rec_basis" >
    <v>       0.31601773      -0.18245297       0.00000000 </v>
    <v>       0.31601773       0.18245297       0.00000000 </v>
    <v>       0.00000000       0.00000000       0.02860193 </v>
   </varray>
  </crystal>
  <varray name="positions" >
   <v>       0.66666700       0.33333300       0.10664700 </v>
   <v>       0.33333300       0.66666700       0.06198962 </v>
   <v>       0.33333300       0.66666700       0.15130538 </v>
  </varray>
 </structure>
 <calculation>
  <scstep>
   <time name="total">  240.86  241.20</time>
   <dipole>
    <v name="dipole">      0.00000000       0.00000000       0.20117036 </v>
    <i name="Tr[quadrupol]">    -52.74499822 </i>
    <i name="Echarged">      0.00000000 </i>
    <i name="Edipol_quadrupol">      0.00000000 </i>
    <i name="Eion">      0.00000000 </i>
   </dipole>
   <energy>
    <i name="alphaZ">     57.13462243 </i>
    <i name="ewald">  12079.28848830 </i>
    <i name="hartreedc"> -13648.27508921 </i>
    <i name="XCdc">     62.12515925 </i>
    <i name="pawpsdc">   1174.77833344 </i>
    <i name="pawaedc">  -1153.79509871 </i>
    <i name="eentropy">     -0.00119542 </i>
    <i name="bandstr">   -307.07913865 </i>
    <i name="atom">   1837.94417650 </i>
    <i name="e_fr_energy">    102.12145336 </i>
    <i name="e_wo_entrp">    102.12264878 </i>
    <i name="e_0_energy">    102.12205107 </i>
   </energy>
  </scstep>
  <scstep>
   <time name="total">  240.89  241.20</time>
   <dipole>
    <v name="dipole">      0.00000000       0.00000000       0.20117036 </v>
    <i name="Tr[quadrupol]">    -52.74499822 </i>
    <i name="Echarged">      0.00000000 </i>
    <i name="Edipol_quadrupol">      0.00000000 </i>
    <i name="Eion">      0.00000000 </i>
   </dipole>
   <energy>
    <i name="e_fr_energy">     27.81875530 </i>
    <i name="e_wo_entrp">     27.81967701 </i>
    <i name="e_0_energy">     27.81921615 </i>
   </energy>
  </scstep>
  <scstep>
   <time name="total">  239.75  240.06</time>
   <dipole>
    <v name="dipole">      0.00000000       0.00000000       0.20117036 </v>
    <i name="Tr[quadrupol]">    -52.74499822 </i>
    <i name="Echarged">      0.00000000 </i>
    <i name="Edipol_quadrupol">      0.00000000 </i>
    <i name="Eion">      0.00000000 </i>
   </dipole>
   <energy>
    <i name="e_fr_energy">      3.12189113 </i>
    <i name="e_wo_entrp">      3.12268827 </i>
    <i name="e_0_energy">      3.12228970 </i>
   </energy>
  </scstep>
  <scstep>
   <time name="total">  239.40  239.48</time>
   <dipole>
    <v name="dipole">      0.00000000       0.00000000       0.20117036 </v>
    <i name="Tr[quadrupol]">    -52.74499822 </i>
    <i name="Echarged">      0.00000000 </i>
    <i name="Edipol_quadrupol">      0.00000000 </i>
    <i name="Eion">      0.00000000 </i>
   </dipole>
   <energy>
    <i name="e_fr_energy">     -6.50427747 </i>
    <i name="e_wo_entrp">     -6.50329846 </i>
    <i name="e_0_energy">     -6.50378796 </i>
   </energy>
  </scstep>
  <scstep>
   <time name="total">  239.71  239.90</time>
   <dipole>
    <v name="dipole">      0.00000000       0.00000000       0.20117036 </v>
    <i name="Tr[quadrupol]">    -52.74499822 </i>
    <i name="Echarged">      0.00000000 </i>
    <i name="Edipol_quadrupol">      0.00000000 </i>
    <i name="Eion">      0.00000000 </i>
   </dipole>
   <energy>
    <i name="e_fr_energy">    -14.58045392 </i>
    <i name="e_wo_entrp">    -14.57994515 </i>
    <i name="e_0_energy">    -14.58019954 </i>
   </energy>
  </scstep>
  <scstep>
   <time name="total">  241.88  242.78</time>
   <dipole>
    <v name="dipole">      0.00000000       0.00000000       0.20117036 </v>
    <i name="Tr[quadrupol]">    -52.74499822 </i>
    <i name="Echarged">      0.00000000 </i>
    <i name="Edipol_quadrupol">      0.00000000 </i>
    <i name="Eion">      0.00000000 </i>
   </dipole>
   <energy>
    <i name="e_fr_energy">    -18.51756022 </i>
    <i name="e_wo_entrp">    -18.51703317 </i>
    <i name="e_0_energy">    -18.51729670 </i>
   </energy>
  </scstep>
  <scstep>
   <time name="total">  239.31  239.56</time>
   <dipole>
    <v name="dipole">      0.00000000       0.00000000       0.20117036 </v>
    <i name="Tr[quadrupol]">    -52.74499822 </i>
    <i name="Echarged">      0.00000000 </i>
    <i name="Edipol_quadrupol">      0.00000000 </i>
    <i name="Eion">      0.00000000 </i>
   </dipole>
   <energy>
    <i name="e_fr_energy">    -20.27131307 </i>
    <i name="e_wo_entrp">    -20.27105530 </i>
    <i name="e_0_energy">    -20.27118419 </i>
   </energy>
  </scstep>
  <scstep>
   <time name="total">  239.11  239.20</time>
   <dipole>
    <v name="dipole">      0.00000000       0.00000000       0.20117036 </v>
    <i name="Tr[quadrupol]">    -52.74499822 </i>
    <i name="Echarged">      0.00000000 </i>
    <i name="Edipol_quadrupol">      0.00000000 </i>
    <i name="Eion">      0.00000000 </i>
   </dipole>
   <energy>
    <i name="e_fr_energy">    -21.02102679 </i>
    <i name="e_wo_entrp">    -21.02102679 </i>
    <i name="e_0_energy">    -21.02102679 </i>
   </energy>
  </scstep>
  <scstep>
   <time name="total">  239.61  239.70</time>
   <dipole>
    <v name="dipole">      0.00000000       0.00000000       0.20117036 </v>
    <i name="Tr[quadrupol]">    -52.74499822 </i>
    <i name="Echarged">      0.00000000 </i>
    <i name="Edipol_quadrupol">      0.00000000 </i>
    <i name="Eion">      0.00000000 </i>
   </dipole>
   <energy>
    <i name="e_fr_energy">    -21.24923229 </i>
    <i name="e_wo_entrp">    -21.24923229 </i>
    <i name="e_0_energy">    -21.24923229 </i>
   </energy>
  </scstep>
  <scstep>
   <time name="total">  239.61  239.70</time>
   <dipole>
    <v name="dipole">      0.00000000       0.00000000       0.20117036 </v>
    <i name="Tr[quadrupol]">    -52.74499822 </i>
    <i name="Echarged">      0.00000000 </i>
    <i name="Edipol_quadrupol">      0.00000000 </i>
    <i name="Eion">      0.00000000 </i>
   </dipole>
   <energy>
    <i name="e_fr_energy">    -21.58166029 </i>
    <i name="e_wo_entrp">    -21.58166029 </i>
    <i name="e_0_energy">    -21.58166029 </i>
   </energy>
  </scstep>
  <scstep>
   <time name="total">  239.82  239.91</time>
   <dipole>
    <v name="dipole">      0.00000000       0.00000000       0.20117036 </v>
    <i name="Tr[quadrupol]">    -52.74499822 </i>
    <i name="Echarged">      0.00000000 </i>
    <i name="Edipol_quadrupol">      0.00000000 </i>
    <i name="Eion">      0.00000000 </i>
   </dipole>
   <energy>
    <i name="e_fr_energy">    -21.68502034 </i>
    <i name="e_wo_entrp">    -21.68502034 </i>
    <i name="e_0_energy">    -21.68502034 </i>
   </energy>
  </scstep>
  <scstep>
   <time name="total">  239.76  239.85</time>
   <dipole>
    <v name="dipole">      0.00000000       0.00000000       0.20117036 </v>
    <i name="Tr[quadrupol]">    -52.74499822 </i>
    <i name="Echarged">      0.00000000 </i>
    <i name="Edipol_quadrupol">      0.00000000 </i>
    <i name="Eion">      0.00000000 </i>
   </dipole>
   <energy>
    <i name="e_fr_energy">    -21.72105909 </i>
    <i name="e_wo_entrp">    -21.72105909 </i>
    <i name="e_0_energy">    -21.72105909 </i>
   </energy>
  </scstep>
  <scstep>
   <time name="total">  239.55  239.65</time>
   <dipole>
    <v name="dipole">      0.00000000       0.00000000       0.20117036 </v>
    <i name="Tr[quadrupol]">    -52.74499822 </i>
    <i name="Echarged">      0.00000000 </i>
    <i name="Edipol_quadrupol">      0.00000000 </i>
    <i name="Eion">      0.00000000 </i>
   </dipole>
   <energy>
    <i name="e_fr_energy">    -21.73759056 </i>
    <i name="e_wo_entrp">    -21.73759056 </i>
    <i name="e_0_energy">    -21.73759056 </i>
   </energy>
  </scstep>
  <scstep>
   <time name="total">  239.62  239.71</time>
   <dipole>
    <v name="dipole">      0.00000000       0.00000000       0.20117036 </v>
    <i name="Tr[quadrupol]">    -52.74499822 </i>
    <i name="Echarged">      0.00000000 </i>
    <i name="Edipol_quadrupol">      0.00000000 </i>
    <i name="Eion">      0.00000000 </i>
   </dipole>
   <energy>
    <i name="e_fr_energy">    -21.74360754 </i>
    <i name="e_wo_entrp">    -21.74360754 </i>
    <i name="e_0_energy">    -21.74360754 </i>
   </energy>
  </scstep>
  <scstep>
   <time name="total">  239.74  239.83</time>
   <dipole>
    <v name="dipole">      0.00000000       0.00000000       0.20117036 </v>
    <i name="Tr[quadrupol]">    -52.74499822 </i>
    <i name="Echarged">      0.00000000 </i>
    <i name="Edipol_quadrupol">      0.00000000 </i>
    <i name="Eion">      0.00000000 </i>
   </dipole>
   <energy>
    <i name="e_fr_energy">    -21.74535509 </i>
    <i name="e_wo_entrp">    -21.74535509 </i>
    <i name="e_0_energy">    -21.74535509 </i>
   </energy>
  </scstep>
  <scstep>
   <time name="total">  239.05  239.14</time>
   <dipole>
    <v name="dipole">      0.00000000       0.00000000       0.20117036 </v>
    <i name="Tr[quadrupol]">    -52.74499822 </i>
    <i name="Echarged">      0.00000000 </i>
    <i name="Edipol_quadrupol">      0.00000000 </i>
    <i name="Eion">      0.00000000 </i>
   </dipole>
   <energy>
    <i name="e_fr_energy">    -21.74577407 </i>
    <i name="e_wo_entrp">    -21.74577407 </i>
    <i name="e_0_energy">    -21.74577407 </i>
   </energy>
  </scstep>
  <scstep>
   <time name="total">  239.69  239.78</time>
   <dipole>
    <v name="dipole">      0.00000000       0.00000000       0.20117036 </v>
    <i name="Tr[quadrupol]">    -52.74499822 </i>
    <i name="Echarged">      0.00000000 </i>
    <i name="Edipol_quadrupol">      0.00000000 </i>
    <i name="Eion">      0.00000000 </i>
   </dipole>
   <energy>
    <i name="e_fr_energy">    -21.74587416 </i>
    <i name="e_wo_entrp">    -21.74587416 </i>
    <i name="e_0_energy">    -21.74587416 </i>
   </energy>
  </scstep>
  <scstep>
   <time name="total">  239.66  239.75</time>
   <dipole>
    <v name="dipole">      0.00000000       0.00000000       0.20117036 </v>
    <i name="Tr[quadrupol]">    -52.74499822 </i>
    <i name="Echarged">      0.00000000 </i>
    <i name="Edipol_quadrupol">      0.00000000 </i>
    <i name="Eion">      0.00000000 </i>
   </dipole>
   <energy>
    <i name="e_fr_energy">    -21.74590049 </i>
    <i name="e_wo_entrp">    -21.74590049 </i>
    <i name="e_0_energy">    -21.74590049 </i>
   </energy>
  </scstep>
  <scstep>
   <time name="total">  239.61  239.69</time>
   <dipole>
    <v name="dipole">      0.00000000       0.00000000       0.20117036 </v>
    <i name="Tr[quadrupol]">    -52.74499822 </i>
    <i name="Echarged">      0.00000000 </i>
    <i name="Edipol_quadrupol">      0.00000000 </i>
    <i name="Eion">      0.00000000 </i>
   </dipole>
   <energy>
    <i name="e_fr_energy">    -21.74590879 </i>
    <i name="e_wo_entrp">    -21.74590879 </i>
    <i name="e_0_energy">    -21.74590879 </i>
   </energy>
  </scstep>
  <scstep>
   <time name="total">  239.60  239.67</time>
   <dipole>
    <v name="dipole">      0.00000000       0.00000000       0.20117036 </v>
    <i name="Tr[quadrupol]">    -52.74499822 </i>
    <i name="Echarged">      0.00000000 </i>
    <i name="Edipol_quadrupol">      0.00000000 </i>
    <i name="Eion">      0.00000000 </i>
   </dipole>
   <energy>
    <i name="e_fr_energy">    -21.74591161 </i>
    <i name="e_wo_entrp">    -21.74591161 </i>
    <i name="e_0_energy">    -21.74591161 </i>
   </energy>
  </scstep>
  <scstep>
   <time name="total">  239.67  239.75</time>
   <dipole>
    <v name="dipole">      0.00000000       0.00000000       0.20117036 </v>
    <i name="Tr[quadrupol]">    -52.74499822 </i>
    <i name="Echarged">      0.00000000 </i>
    <i name="Edipol_quadrupol">      0.00000000 </i>
    <i name="Eion">      0.00000000 </i>
   </dipole>
   <energy>
    <i name="e_fr_energy">    -21.74591252 </i>
    <i name="e_wo_entrp">    -21.74591252 </i>
    <i name="e_0_energy">    -21.74591252 </i>
   </energy>
  </scstep>
  <scstep>
   <time name="total">  239.67  239.76</time>
   <dipole>
    <v name="dipole">      0.00000000       0.00000000       0.20117036 </v>
    <i name="Tr[quadrupol]">    -52.74499822 </i>
    <i name="Echarged">      0.00000000 </i>
    <i name="Edipol_quadrupol">      0.00000000 </i>
    <i name="Eion">      0.00000000 </i>
   </dipole>
   <energy>
    <i name="e_fr_energy">    -21.74591278 </i>
    <i name="e_wo_entrp">    -21.74591278 </i>
    <i name="e_0_energy">    -21.74591278 </i>
   </energy>
  </scstep>
  <scstep>
