    3    3    1    1
  0.1051873E+03  0.3228306E-09  0.3228306E-09  0.3496268E-08  0.5000000E-15
  1.000000000000000E-004
  CAR 
 MoS2 Band + SOC (HR, N=120)             
     24    360    256
 
  0.0000000E+00  0.0000000E+00  0.0000000E+00  0.2777778E-02
    1      -42.087959   1.000000
    2      -42.087935   1.000000
    3      -39.718953   1.000000
    4      -39.718922   1.000000
    5      -39.605355   1.000000
    6      -39.605312   1.000000
    7      -19.427980   1.000000
    8      -19.427942   1.000000
    9      -18.144450   1.000000
   10      -18.144400   1.000000
   11      -10.959551   1.000000
   12      -10.959544   1.000000
   13       -8.146071   1.000000
   14       -8.146055   1.000000
   15       -8.084821   1.000000
   16       -8.084807   1.000000
   17       -7.126389   1.000000
   18       -7.126327   1.000000
   19       -7.073553   1.000000
   20       -7.073545   1.000000
   21       -6.990533   1.000000
   22       -6.990525   1.000000
   23       -5.398925   1.000000
   24       -5.398923   1.000000
   25       -2.877328   0.000000
   26       -2.877324   0.000000
   27       -2.799546   0.000000
   28       -2.799543   0.000000
   29       -2.596124   0.000000
   30       -2.596117   0.000000
   31       -2.592773   0.000000
   32       -2.592768   0.000000
   33        0.210577   0.000000
   34        0.210613   0.000000
   35        0.751587   0.000000
   36        0.751624   0.000000
   37        1.742927   0.000000
   38        1.742953   0.000000
   39        2.294560   0.000000
   40        2.294561   0.000000
   41        2.397506   0.000000
   42        2.397523   0.000000
   43        2.919361   0.000000
   44        2.919374   0.000000
   45        3.380114   0.000000
   46        3.380132   0.000000
   47        3.427879   0.000000
   48        3.427880   0.000000
   49        3.858633   0.000000
   50        3.858644   0.000000
   51        4.430292   0.000000
   52        4.430305   0.000000
   53        4.923009   0.000000
   54        4.923027   0.000000
   55        5.314781   0.000000
   56        5.314788   0.000000
   57        5.387174   0.000000
   58        5.387182   0.000000
   59        5.734678   0.000000
   60        5.734694   0.000000
   61        6.237523   0.000000
   62        6.237534   0.000000
   63        7.176022   0.000000
   64        7.176041   0.000000
   65        7.370044   0.000000
   66        7.370057   0.000000
   67        7.439760   0.000000
   68        7.439773   0.000000
   69        7.452831   0.000000
   70        7.452843   0.000000
   71        8.163605   0.000000
   72        8.163615   0.000000
   73        9.294794   0.000000
   74        9.294810   0.000000
   75        9.876409   0.000000
   76        9.876424   0.000000
   77       10.721306   0.000000
   78       10.721316   0.000000
   79       10.792274   0.000000
   80       10.792286   0.000000
   81       10.794611   0.000000
   82       10.794629   0.000000
   83       10.829443   0.000000
   84       10.829461   0.000000
   85       10.839762   0.000000
   86       10.839775   0.000000
   87       11.502025   0.000000
   88       11.502038   0.000000
   89       11.518037   0.000000
   90       11.518104   0.000000
   91       11.640242   0.000000
   92       11.640258   0.000000
   93       13.204821   0.000000
   94       13.204828   0.000000
   95       13.827348   0.000000
   96       13.827357   0.000000
   97       14.233742   0.000000
   98       14.233746   0.000000
   99       14.678606   0.000000
  100       14.678615   0.000000
  101       16.632175   0.000000
  102       16.632187   0.000000
  103       16.738004   0.000000
  104       16.738017   0.000000
  105       17.009987   0.000000
  106       17.009997   0.000000
  107       17.105172   0.000000
  108       17.105181   0.000000
  109       18.893582   0.000000
  110       18.893591   0.000000
  111       18.909079   0.000000
  112       18.909088   0.000000
  113       18.910131   0.000000
  114       18.910152   0.000000
  115       19.363842   0.000000
  116       19.363863   0.000000
  117       19.375680   0.000000
  118       19.375701   0.000000
  119       19.381099   0.000000
  120       19.381120   0.000000
  121       19.582469   0.000000
  122       19.582502   0.000000
  123       19.613372   0.000000
  124       19.613401   0.000000
  125       20.430892   0.000000
  126       20.430918   0.000000
  127       20.467009   0.000000
  128       20.467037   0.000000
  129       20.544023   0.000000
  130       20.544047   0.000000
  131       20.747007   0.000000
  132       20.747033   0.000000
  133       20.749585   0.000000
  134       20.749612   0.000000
  135       20.825796   0.000000
  136       20.825849   0.000000
  137       20.964782   0.000000
  138       20.964796   0.000000
  139       20.967277   0.000000
  140       20.967290   0.000000
  141       20.970721   0.000000
  142       20.970747   0.000000
  143       21.268916   0.000000
  144       21.268925   0.000000
  145       21.273190   0.000000
  146       21.273199   0.000000
  147       21.386388   0.000000
  148       21.386405   0.000000
  149       21.524225   0.000000
  150       21.524246   0.000000
  151       21.568709   0.000000
  152       21.568722   0.000000
  153       21.570538   0.000000
  154       21.570551   0.000000
  155       21.744744   0.000000
  156       21.744754   0.000000
  157       21.761256   0.000000
  158       21.761266   0.000000
  159       21.781490   0.000000
  160       21.781501   0.000000
  161       21.980820   0.000000
  162       21.980832   0.000000
  163       22.092440   0.000000
  164       22.092448   0.000000
  165       22.096357   0.000000
  166       22.096365   0.000000
  167       22.205201   0.000000
  168       22.205206   0.000000
  169       22.215699   0.000000
  170       22.215707   0.000000
  171       22.222362   0.000000
  172       22.222371   0.000000
  173       22.352942   0.000000
  174       22.352954   0.000000
  175       22.566596   0.000000
  176       22.566602   0.000000
  177       22.575430   0.000000
  178       22.575437   0.000000
  179       22.624802   0.000000
  180       22.624808   0.000000
  181       22.626898   0.000000
  182       22.626904   0.000000
  183       22.640256   0.000000
  184       22.640266   0.000000
  185       22.686268   0.000000
  186       22.686279   0.000000
  187       22.758744   0.000000
  188       22.758756   0.000000
  189       22.984372   0.000000
  190       22.984380   0.000000
  191       22.988361   0.000000
  192       22.988368   0.000000
  193       23.074796   0.000000
  194       23.074810   0.000000
  195       23.108669   0.000000
  196       23.108681   0.000000
  197       23.135891   0.000000
  198       23.135898   0.000000
  199       23.145468   0.000000
  200       23.145476   0.000000
  201       23.385396   0.000000
  202       23.385406   0.000000
  203       23.387410   0.000000
  204       23.387420   0.000000
  205       23.455202   0.000000
  206       23.455219   0.000000
  207       23.598923   0.000000
  208       23.598932   0.000000
  209       23.599620   0.000000
  210       23.599629   0.000000
  211       23.775164   0.000000
  212       23.775178   0.000000
  213       23.884721   0.000000
  214       23.884733   0.000000
  215       23.891522   0.000000
  216       23.891534   0.000000
  217       23.925816   0.000000
  218       23.925840   0.000000
  219       24.128024   0.000000
  220       24.128043   0.000000
  221       24.225708   0.000000
  222       24.225719   0.000000
  223       24.237315   0.000000
  224       24.237327   0.000000
  225       24.467891   0.000000
  226       24.467900   0.000000
  227       24.470020   0.000000
  228       24.470029   0.000000
  229       24.594928   0.000000
  230       24.594946   0.000000
  231       24.810616   0.000000
  232       24.810633   0.000000
  233       24.866177   0.000000
  234       24.866187   0.000000
  235       24.867748   0.000000
  236       24.867758   0.000000
  237       25.033469   0.000000
  238       25.033480   0.000000
  239       25.044514   0.000000
  240       25.044523   0.000000
  241       25.135491   0.000000
  242       25.135512   0.000000
  243       25.471369   0.000000
  244       25.471452   0.000000
  245       25.594552   0.000000
  246       25.594995   0.000000
  247       25.605829   0.000000
  248       25.606058   0.000000
  249       25.879849   0.000000
  250       25.880856   0.000000
  251       25.889148   0.000000
  252       25.890293   0.000000
  253       25.892685   0.000000
  254       25.949241   0.000000
  255       26.070251   0.000000
  256       26.153121   0.000000
 
  0.2801118E-02  0.2801118E-02  0.0000000E+00  0.2777778E-02
    1      -42.087979   1.000000
    2      -42.087955   1.000000
    3      -39.718960   1.000000
    4      -39.718930   1.000000
    5      -39.605405   1.000000
    6      -39.605362   1.000000
    7      -19.427645   1.000000
    8      -19.427613   1.000000
    9      -18.144322   1.000000
   10      -18.144256   1.000000
   11      -10.959162   1.000000
   12      -10.959154   1.000000
   13       -8.146294   1.000000
   14       -8.146270   1.000000
   15       -8.085035   1.000000
   16       -8.085030   1.000000
   17       -7.138083   1.000000
   18       -7.137506   1.000000
   19       -7.066736   1.000000
   20       -7.066091   1.000000
   21       -6.987283   1.000000
   22       -6.987229   1.000000
   23       -5.399141   1.000000
   24       -5.399100   1.000000
   25       -2.877328   0.000000
   26       -2.877259   0.000000
   27       -2.799572   0.000000
   28       -2.799554   0.000000
   29       -2.596942   0.000000
   30       -2.596800   0.000000
   31       -2.593430   0.000000
   32       -2.593266   0.000000
   33        0.211448   0.000000
   34        0.211722   0.000000
   35        0.752641   0.000000
   36        0.752926   0.000000
   37        1.743390   0.000000
   38        1.743418   0.000000
   39        2.295009   0.000000
   40        2.295053   0.000000
   41        2.397949   0.000000
   42        2.397969   0.000000
   43        2.919814   0.000000
   44        2.919825   0.000000
   45        3.381480   0.000000
   46        3.381498   0.000000
   47        3.428655   0.000000
   48        3.428656   0.000000
   49        3.859072   0.000000
   50        3.859082   0.000000
   51        4.430724   0.000000
   52        4.430736   0.000000
   53        4.923275   0.000000
   54        4.923294   0.000000
   55        5.314692   0.000000
   56        5.314737   0.000000
   57        5.387073   0.000000
   58        5.387106   0.000000
   59        5.735094   0.000000
   60        5.735108   0.000000
   61        6.238283   0.000000
   62        6.238292   0.000000
   63        7.176113   0.000000
   64        7.176323   0.000000
   65        7.369713   0.000000
   66        7.370316   0.000000
   67        7.438062   0.000000
   68        7.438436   0.000000
   69        7.451604   0.000000
   70        7.451644   0.000000
   71        8.163717   0.000000
   72        8.163728   0.000000
   73        9.295118   0.000000
   74        9.295131   0.000000
   75        9.876583   0.000000
   76        9.876605   0.000000
   77       10.724082   0.000000
   78       10.724369   0.000000
   79       10.789118   0.000000
   80       10.791070   0.000000
   81       10.793840   0.000000
   82       10.795970   0.000000
   83       10.826641   0.000000
   84       10.830435   0.000000
   85       10.838866   0.000000
   86       10.839099   0.000000
   87       11.503139   0.000000
   88       11.503159   0.000000
   89       11.518045   0.000000
   90       11.518112   0.000000
   91       11.641195   0.000000
   92       11.641217   0.000000
   93       13.205817   0.000000
   94       13.205845   0.000000
   95       13.829451   0.000000
   96       13.829464   0.000000
   97       14.236198   0.000000
   98       14.236297   0.000000
   99       14.678808   0.000000
  100       14.678900   0.000000
  101       16.632297   0.000000
  102       16.632620   0.000000
  103       16.734708   0.000000
  104       16.735235   0.000000
  105       17.011449   0.000000
  106       17.012257   0.000000
  107       17.106419   0.000000
  108       17.106429   0.000000
  109       18.833415   0.000000
  110       18.836688   0.000000
  111       18.891978   0.000000
  112       18.894333   0.000000
  113       18.946325   0.000000
  114       18.948924   0.000000
  115       19.331402   0.000000
  116       19.334805   0.000000
  117       19.370786   0.000000
  118       19.372643   0.000000
  119       19.391334   0.000000
  120       19.393896   0.000000
  121       19.601144   0.000000
  122       19.601345   0.000000
  123       19.647153   0.000000
  124       19.650444   0.000000
  125       20.384956   0.000000
  126       20.399105   0.000000
  127       20.445274   0.000000
  128       20.451410   0.000000
  129       20.579091   0.000000
  130       20.587546   0.000000
  131       20.657863   0.000000
  132       20.661781   0.000000
  133       20.724349   0.000000
  134       20.729401   0.000000
  135       20.865932   0.000000
  136       20.867384   0.000000
  137       20.904405   0.000000
  138       20.906299   0.000000
  139       20.982671   0.000000
  140       20.983742   0.000000
  141       21.054894   0.000000
  142       21.055338   0.000000
  143       21.227667   0.000000
  144       21.234126   0.000000
  145       21.267772   0.000000
  146       21.270752   0.000000
  147       21.393111   0.000000
  148       21.395687   0.000000
  149       21.508128   0.000000
  150       21.513200   0.000000
  151       21.541557   0.000000
  152       21.548992   0.000000
  153       21.572271   0.000000
  154       21.573139   0.000000
  155       21.755912   0.000000
  156       21.765074   0.000000
  157       21.771432   0.000000
  158       21.778232   0.000000
  159       21.818179   0.000000
  160       21.822510   0.000000
  161       21.974545   0.000000
  162       21.979868   0.000000
  163       22.022620   0.000000
  164       22.026000   0.000000
  165       22.061876   0.000000
  166       22.065502   0.000000
  167       22.196011   0.000000
  168       22.203624   0.000000
  169       22.234002   0.000000
  170       22.239262   0.000000
  171       22.302865   0.000000
  172       22.306929   0.000000
  173       22.390562   0.000000
  174       22.394975   0.000000
  175       22.474387   0.000000
  176       22.476247   0.000000
  177       22.483823   0.000000
  178       22.484019   0.000000
  179       22.607589   0.000000
  180       22.607778   0.000000
  181       22.638656   0.000000
  182       22.638816   0.000000
  183       22.722618   0.000000
  184       22.723793   0.000000
  185       22.754553   0.000000
  186       22.756686   0.000000
  187       22.805990   0.000000
  188       22.806295   0.000000
  189       22.897773   0.000000
  190       22.901344   0.000000
  191       22.928576   0.000000
  192       22.936357   0.000000
  193       23.041013   0.000000
  194       23.046388   0.000000
  195       23.110895   0.000000
  196       23.113567   0.000000
  197       23.198690   0.000000
  198       23.207544   0.000000
  199       23.255970   0.000000
  200       23.260892   0.000000
  201       23.277575   0.000000
  202       23.278545   0.000000
  203       23.354941   0.000000
  204       23.355339   0.000000
  205       23.526320   0.000000
  206       23.526949   0.000000
  207       23.567032   0.000000
  208       23.568022   0.000000
  209       23.639823   0.000000
  210       23.640774   0.000000
  211       23.789987   0.000000
  212       23.795415   0.000000
  213       23.846326   0.000000
  214       23.849652   0.000000
  215       23.861618   0.000000
  216       23.869853   0.000000
  217       23.968449   0.000000
  218       23.970176   0.000000
  219       24.091769   0.000000
  220       24.099270   0.000000
  221       24.247261   0.000000
  222       24.258527   0.000000
  223       24.303875   0.000000
  224       24.310166   0.000000
  225       24.380787   0.000000
  226       24.381143   0.000000
  227       24.454826   0.000000
  228       24.455182   0.000000
  229       24.667572   0.000000
  230       24.668374   0.000000
  231       24.790762   0.000000
  232       24.792961   0.000000
  233       24.840254   0.000000
  234       24.841335   0.000000
  235       24.882516   0.000000
  236       24.882932   0.000000
  237       25.023570   0.000000
  238       25.025615   0.000000
  239       25.035490   0.000000
  240       25.036581   0.000000
  241       25.186265   0.000000
  242       25.187691   0.000000
  243       25.434214   0.000000
  244       25.438176   0.000000
  245       25.605758   0.000000
  246       25.614903   0.000000
  247       25.635089   0.000000
  248       25.640806   0.000000
  249       25.817342   0.000000
  250       25.817946   0.000000
  251       25.881575   0.000000
  252       25.881837   0.000000
  253       25.896975   0.000000
  254       25.911691   0.000000
  255       26.122737   0.000000
  256       26.144284   0.000000
 
  0.5602235E-02  0.5602235E-02  0.0000000E+00  0.2777778E-02
    1      -42.088041   1.000000
    2      -42.088016   1.000000
    3      -39.718983   1.000000
    4      -39.718953   1.000000
    5      -39.605557   1.000000
    6      -39.605515   1.000000
    7      -19.426652   1.000000
    8      -19.426617   1.000000
    9      -18.143924   1.000000
   10      -18.143840   1.000000
   11      -10.957998   1.000000
   12      -10.957984   1.000000
   13       -8.147048   1.000000
   14       -8.146955   1.000000
   15       -8.085658   1.000000
   16       -8.085593   1.000000
   17       -7.162220   1.000000
   18       -7.161475   1.000000
   19       -7.056266   1.000000
   20       -7.055353   1.000000
   21       -6.977088   1.000000
   22       -6.976701   1.000000
   23       -5.399753   1.000000
   24       -5.399669   1.000000
   25       -2.877372   0.000000
   26       -2.877129   0.000000
   27       -2.799653   0.000000
   28       -2.799483   0.000000
   29       -2.599748   0.000000
   30       -2.598812   0.000000
   31       -2.595380   0.000000
   32       -2.594453   0.000000
   33        0.214261   0.000000
   34        0.214824   0.000000
   35        0.756050   0.000000
   36        0.756596   0.000000
   37        1.744782   0.000000
   38        1.744811   0.000000
   39        2.296397   0.000000
   40        2.296486   0.000000
   41        2.399280   0.000000
   42        2.399304   0.000000
   43        2.921170   0.000000
   44        2.921182   0.000000
   45        3.385490   0.000000
   46        3.385508   0.000000
   47        3.431060   0.000000
   48        3.431063   0.000000
   49        3.860388   0.000000
   50        3.860397   0.000000
   51        4.432021   0.000000
   52        4.432032   0.000000
   53        4.924067   0.000000
   54        4.924088   0.000000
   55        5.314181   0.000000
   56        5.314404   0.000000
   57        5.386954   0.000000
   58        5.387172   0.000000
   59        5.736337   0.000000
   60        5.736351   0.000000
   61        6.240547   0.000000
   62        6.240558   0.000000
   63        7.176551   0.000000
   64        7.176979   0.000000
   65        7.368961   0.000000
   66        7.370333   0.000000
   67        7.431740   0.000000
   68        7.432698   0.000000
   69        7.449692   0.000000
   70        7.449838   0.000000
   71        8.164052   0.000000
   72        8.164072   0.000000
   73        9.296079   0.000000
   74        9.296099   0.000000
   75        9.877105   0.000000
   76        9.877138   0.000000
   77       10.731156   0.000000
   78       10.731922   0.000000
   79       10.782087   0.000000
   80       10.788021   0.000000
   81       10.793680   0.000000
   82       10.795929   0.000000
   83       10.822756   0.000000
   84       10.829225   0.000000
   85       10.836421   0.000000
   86       10.838200   0.000000
   87       11.506445   0.000000
   88       11.506477   0.000000
   89       11.518070   0.000000
   90       11.518136   0.000000
   91       11.644048   0.000000
   92       11.644093   0.000000
   93       13.208826   0.000000
   94       13.208876   0.000000
   95       13.835640   0.000000
   96       13.835662   0.000000
   97       14.243726   0.000000
   98       14.243925   0.000000
   99       14.679488   0.000000
  100       14.679678   0.000000
  101       16.632880   0.000000
  102       16.633585   0.000000
  103       16.725598   0.000000
  104       16.726733   0.000000
  105       17.016455   0.000000
  106       17.018063   0.000000
  107       17.110015   0.000000
  108       17.110174   0.000000
  109       18.736936   0.000000
  110       18.743334   0.000000
  111       18.862028   0.000000
  112       18.866613   0.000000
  113       18.968638   0.000000
  114       18.972001   0.000000
  115       19.253489   0.000000
  116       19.259004   0.000000
  117       19.366649   0.000000
  118       19.370333   0.000000
  119       19.440716   0.000000
  120       19.443502   0.000000
  121       19.620875   0.000000
  122       19.621358   0.000000
  123       19.737901   0.000000
  124       19.742738   0.000000
  125       20.296996   0.000000
  126       20.312973   0.000000
  127       20.419951   0.000000
  128       20.431396   0.000000
  129       20.535895   0.000000
  130       20.545148   0.000000
  131       20.630548   0.000000
  132       20.634856   0.000000
  133       20.655037   0.000000
  134       20.663964   0.000000
  135       20.833079   0.000000
  136       20.834230   0.000000
  137       20.924353   0.000000
  138       20.925273   0.000000
  139       20.989156   0.000000
  140       20.992986   0.000000
  141       21.113076   0.000000
  142       21.115026   0.000000
  143       21.212818   0.000000
  144       21.213432   0.000000
  145       21.251569   0.000000
  146       21.252850   0.000000
  147       21.354727   0.000000
  148       21.360294   0.000000
  149       21.481414   0.000000
  150       21.492754   0.000000
  151       21.542718   0.000000
  152       21.546591   0.000000
  153       21.596807   0.000000
  154       21.600428   0.000000
  155       21.774312   0.000000
  156       21.777866   0.000000
  157       21.779333   0.000000
  158       21.785359   0.000000
  159       21.813877   0.000000
  160       21.817412   0.000000
  161       21.976656   0.000000
  162       21.980270   0.000000
  163       21.999281   0.000000
  164       22.002974   0.000000
  165       22.063791   0.000000
  166       22.067554   0.000000
  167       22.199491   0.000000
  168       22.206034   0.000000
  169       22.239185   0.000000
  170       22.244794   0.000000
  171       22.307167   0.000000
  172       22.310814   0.000000
  173       22.348983   0.000000
  174       22.352206   0.000000
  175       22.470329   0.000000
  176       22.473465   0.000000
  177       22.511801   0.000000
  178       22.515891   0.000000
  179       22.610270   0.000000
  180       22.614220   0.000000
  181       22.640787   0.000000
  182       22.642224   0.000000
  183       22.726451   0.000000
  184       22.729398   0.000000
  185       22.741411   0.000000
  186       22.742440   0.000000
  187       22.800930   0.000000
  188       22.806825   0.000000
  189       22.911901   0.000000
  190       22.912421   0.000000
  191       22.961057   0.000000
  192       22.962272   0.000000
  193       23.033958   0.000000
  194       23.035482   0.000000
  195       23.114463   0.000000
  196       23.115778   0.000000
  197       23.127659   0.000000
  198       23.129620   0.000000
  199       23.265244   0.000000
  200       23.265825   0.000000
  201       23.334981   0.000000
  202       23.341934   0.000000
  203       23.399821   0.000000
  204       23.404776   0.000000
  205       23.542108   0.000000
  206       23.542578   0.000000
  207       23.550446   0.000000
  208       23.550636   0.000000
  209       23.674959   0.000000
  210       23.682427   0.000000
  211       23.760362   0.000000
  212       23.761748   0.000000
  213       23.785103   0.000000
  214       23.797982   0.000000
  215       23.953718   0.000000
  216       23.956640   0.000000
  217       23.981215   0.000000
  218       23.983081   0.000000
  219       24.096489   0.000000
  220       24.107751   0.000000
  221       24.246998   0.000000
  222       24.248142   0.000000
  223       24.309533   0.000000
  224       24.323281   0.000000
  225       24.408425   0.000000
  226       24.409551   0.000000
  227       24.419467   0.000000
  228       24.423341   0.000000
  229       24.736097   0.000000
  230       24.740628   0.000000
  231       24.750751   0.000000
  232       24.758889   0.000000
  233       24.787579   0.000000
  234       24.789430   0.000000
  235       24.942249   0.000000
  236       24.943146   0.000000
  237       24.988033   0.000000
  238       24.997068   0.000000
  239       25.035554   0.000000
  240       25.037930   0.000000
  241       25.290015   0.000000
  242       25.290312   0.000000
  243       25.383304   0.000000
  244       25.394750   0.000000
  245       25.629023   0.000000
  246       25.639952   0.000000
  247       25.684798   0.000000
  248       25.687084   0.000000
  249       25.698462   0.000000
  250       25.699750   0.000000
  251       25.856996   0.000000
  252       25.863206   0.000000
  253       25.943845   0.000000
  254       25.951299   0.000000
  255       26.170734   0.000000
  256       26.235395   0.000000
 
  0.8403353E-02  0.8403353E-02  0.0000000E+00  0.2777778E-02
    1      -42.088143   1.000000
    2      -42.088117   1.000000
    3      -39.719021   1.000000
    4      -39.718992   1.000000
    5      -39.605810   1.000000
    6      -39.605769   1.000000
    7      -19.425000   1.000000
    8      -19.424954   1.000000
    9      -18.143256   1.000000
   10      -18.143152   1.000000
   11      -10.956059   1.000000
   12      -10.956037   1.000000
   13       -8.148542   1.000000
   14       -8.148266   1.000000
   15       -8.086530   1.000000
   16       -8.086279   1.000000
   17       -7.190636   1.000000
   18       -7.189829   1.000000
   19       -7.050533   1.000000
   20       -7.049166   1.000000
   21       -6.960093   1.000000
   22       -6.959138   1.000000
   23       -5.400762   1.000000
   24       -5.400637   1.000000
   25       -2.877692   0.000000
   26       -2.876992   0.000000
   27       -2.799686   0.000000
   28       -2.799116   0.000000
   29       -2.604652   0.000000
   30       -2.602483   0.000000
   31       -2.598275   0.000000
   32       -2.596165   0.000000
   33        0.219005   0.000000
   34        0.219856   0.000000
   35        0.761834   0.000000
   36        0.762640   0.000000
   37        1.747102   0.000000
   38        1.747133   0.000000
   39        2.298726   0.000000
   40        2.298855   0.000000
   41        2.401498   0.000000
   42        2.401526   0.000000
   43        2.923427   0.000000
   44        2.923443   0.000000
   45        3.391865   0.000000
   46        3.391881   0.000000
   47        3.435357   0.000000
   48        3.435362   0.000000
   49        3.862579   0.000000
   50        3.862591   0.000000
   51        4.434180   0.000000
   52        4.434191   0.000000
   53        4.925363   0.000000
   54        4.925386   0.000000
   55        5.312553   0.000000
   56        5.313265   0.000000
   57        5.387426   0.000000
   58        5.388125   0.000000
   59        5.738406   0.000000
   60        5.738422   0.000000
   61        6.244281   0.000000
   62        6.244299   0.000000
   63        7.177290   0.000000
   64        7.177983   0.000000
   65        7.366540   0.000000
   66        7.369102   0.000000
   67        7.420063   0.000000
   68        7.421920   0.000000
   69        7.449155   0.000000
   70        7.449364   0.000000
   71        8.164619   0.000000
   72        8.164651   0.000000
   73        9.297674   0.000000
   74        9.297704   0.000000
   75        9.877963   0.000000
   76        9.878022   0.000000
   77       10.735717   0.000000
   78       10.737085   0.000000
   79       10.776395   0.000000
   80       10.785126   0.000000
   81       10.792053   0.000000
   82       10.798238   0.000000
   83       10.818808   0.000000
   84       10.826447   0.000000
   85       10.834181   0.000000
   86       10.838863   0.000000
   87       11.511825   0.000000
   88       11.511878   0.000000
   89       11.518119   0.000000
   90       11.518182   0.000000
   91       11.648804   0.000000
   92       11.648871   0.000000
   93       13.213853   0.000000
   94       13.213927   0.000000
   95       13.845558   0.000000
   96       13.845594   0.000000
   97       14.256528   0.000000
   98       14.256826   0.000000
   99       14.680651   0.000000
  100       14.680946   0.000000
  101       16.633667   0.000000
  102       16.634877   0.000000
  103       16.711517   0.000000
  104       16.713448   0.000000
  105       17.024555   0.000000
  106       17.026976   0.000000
  107       17.115713   0.000000
  108       17.116286   0.000000
  109       18.624273   0.000000
  110       18.633012   0.000000
  111       18.806976   0.000000
  112       18.813249   0.000000
  113       18.984093   0.000000
  114       18.986960   0.000000
  115       19.185993   0.000000
  116       19.192442   0.000000
  117       19.357563   0.000000
  118       19.363569   0.000000
  119       19.489939   0.000000
  120       19.491832   0.000000
  121       19.657319   0.000000
  122       19.657584   0.000000
  123       19.834474   0.000000
  124       19.841123   0.000000
  125       20.203177   0.000000
  126       20.219502   0.000000
  127       20.348104   0.000000