    3    3    1    1
  0.1051873E+03  0.3228306E-09  0.3228306E-09  0.3496268E-08  0.5000000E-15
  1.000000000000000E-004
  CAR 
 MoS2 SOC SCF (warm, 12x12x1)            
     24    144     40
 
  0.0000000E+00  0.0000000E+00  0.0000000E+00  0.6944444E-02
    1      -42.091249   1.000000
    2      -42.091226   1.000000
    3      -39.713287   1.000000
    4      -39.713255   1.000000
    5      -39.599545   1.000000
    6      -39.599502   1.000000
    7      -19.425800   1.000000
    8      -19.425762   1.000000
    9      -18.142654   1.000000
   10      -18.142605   1.000000
   11      -10.956864   1.000000
   12      -10.956871   1.000000
   13       -8.142526   1.000000
   14       -8.142511   1.000000
   15       -8.081359   1.000000
   16       -8.081345   1.000000
   17       -7.125047   1.000000
   18       -7.124986   1.000000
   19       -7.073086   1.000000
   20       -7.073078   1.000000
   21       -6.990048   1.000000
   22       -6.990039   1.000000
   23       -5.393640   1.000000
   24       -5.393641   1.000000
   25       -2.877058   0.000000
   26       -2.877054   0.000000
   27       -2.799212   0.000000
   28       -2.799208   0.000000
   29       -2.594737   0.000000
   30       -2.594731   0.000000
   31       -2.591337   0.000000
   32       -2.591332   0.000000
   33        0.211012   0.000000
   34        0.211047   0.000000
   35        0.752711   0.000000
   36        0.752748   0.000000
   37        1.742834   0.000000
   38        1.781817   0.000000
   39        2.298022   0.000000
   40        3.354105   0.000000
 
  0.8333333E-01  0.6938894E-17  0.0000000E+00  0.6944444E-02
    1      -42.097150   1.000000
    2      -42.097114   1.000000
    3      -39.715734   1.000000
    4      -39.715721   1.000000
    5      -39.613864   1.000000
    6      -39.613821   1.000000
    7      -19.329375   1.000000
    8      -19.329076   1.000000
    9      -18.103318   1.000000
   10      -18.102900   1.000000
   11      -10.845749   1.000000
   12      -10.845609   1.000000
   13       -8.331721   1.000000
   14       -8.331596   1.000000
   15       -8.009134   1.000000
   16       -8.008926   1.000000
   17       -7.670680   1.000000
   18       -7.670160   1.000000
   19       -7.185569   1.000000
   20       -7.185221   1.000000
   21       -6.636155   1.000000
   22       -6.635169   1.000000
   23       -5.459616   1.000000
   24       -5.458893   1.000000
   25       -2.972348   0.000000
   26       -2.968696   0.000000
   27       -2.838551   0.000000
   28       -2.834474   0.000000
   29       -2.715347   0.000000
   30       -2.712097   0.000000
   31       -2.648039   0.000000
   32       -2.644382   0.000000
   33        0.435531   0.000000
   34        0.439074   0.000000
   35        1.112675   0.000000
   36        1.116363   0.000000
   37        1.880178   0.000000
   38        1.894535   0.000000
   39        2.434236   0.000000
   40        3.001132   0.000000
 
  0.1666667E+00 -0.1387779E-16  0.0000000E+00  0.6944444E-02
    1      -42.113586   1.000000
    2      -42.113541   1.000000
    3      -39.726506   1.000000
    4      -39.726511   1.000000
    5      -39.648114   1.000000
    6      -39.648075   1.000000
    7      -19.055509   1.000000
    8      -19.054865   1.000000
    9      -17.991416   1.000000
   10      -17.990629   1.000000
   11      -10.564606   1.000000
   12      -10.564360   1.000000
   13       -8.833187   1.000000
   14       -8.832637   1.000000
   15       -8.303368   1.000000
   16       -8.302545   1.000000
   17       -7.729524   1.000000
   18       -7.728115   1.000000
   19       -7.550037   1.000000
   20       -7.548374   1.000000
   21       -6.536175   1.000000
   22       -6.535100   1.000000
   23       -5.720486   1.000000
   24       -5.719413   1.000000
   25       -3.216320   0.000000
   26       -3.214408   0.000000
   27       -3.008143   0.000000
   28       -3.006502   0.000000
   29       -2.953452   0.000000
   30       -2.952869   0.000000
   31       -2.270672   0.000000
   32       -2.269965   0.000000
   33        0.862473   0.000000
   34        0.865413   0.000000
   35        1.963041   0.000000
   36        1.967197   0.000000
   37        2.306850   0.000000
   38        2.308818   0.000000
   39        2.858695   0.000000
   40        3.428241   0.000000
 
  0.2500000E+00  0.1387779E-16  0.0000000E+00  0.6944444E-02
    1      -42.136804   1.000000
    2      -42.136754   1.000000
    3      -39.757741   1.000000
    4      -39.757749   1.000000
    5      -39.676509   1.000000
    6      -39.676484   1.000000
    7      -18.651939   1.000000
    8      -18.650945   1.000000
    9      -17.827399   1.000000
   10      -17.826262   1.000000
   11      -10.356319   1.000000
   12      -10.356087   1.000000
   13       -9.271585   1.000000
   14       -9.269797   1.000000
   15       -8.939534   1.000000
   16       -8.937594   1.000000
   17       -7.965481   1.000000
   18       -7.965035   1.000000
   19       -7.330775   1.000000
   20       -7.330078   1.000000
   21       -6.760092   1.000000
   22       -6.759484   1.000000
   23       -6.152774   1.000000
   24       -6.152055   1.000000
   25       -3.331843   0.000000
   26       -3.331215   0.000000
   27       -3.219002   0.000000
   28       -3.218419   0.000000
   29       -2.676059   0.000000
   30       -2.676041   0.000000
   31       -1.860671   0.000000
   32       -1.860207   0.000000
   33        1.415714   0.000000
   34        1.417695   0.000000
   35        2.503515   0.000000
   36        2.508935   0.000000
   37        3.011153   0.000000
   38        3.123371   0.000000
   39        3.319370   0.000000
   40        3.610804   0.000000
 
  0.3333333E+00  0.2775558E-16  0.0000000E+00  0.6944444E-02
    1      -42.160901   1.000000
    2      -42.160854   1.000000
    3      -39.804649   1.000000
    4      -39.804638   1.000000
    5      -39.687113   1.000000
    6      -39.687093   1.000000
    7      -18.202828   1.000000
    8      -18.201519   1.000000
    9      -17.647865   1.000000
   10      -17.646439   1.000000
   11      -10.588409   1.000000
   12      -10.588354   1.000000
   13       -9.529797   1.000000
   14       -9.526127   1.000000
   15       -9.345704   1.000000
   16       -9.341703   1.000000
   17       -8.313782   1.000000
   18       -8.313626   1.000000
   19       -7.054738   1.000000
   20       -7.054214   1.000000
   21       -6.915858   1.000000
   22       -6.915820   1.000000
   23       -6.396681   1.000000
   24       -6.396325   1.000000
   25       -3.399946   0.000000
   26       -3.399635   0.000000
   27       -3.190741   0.000000
   28       -3.190101   0.000000
   29       -2.183843   0.000000
   30       -2.183611   0.000000
   31       -1.554455   0.000000
   32       -1.554087   0.000000
   33        1.927431   0.000000
   34        1.927868   0.000000
   35        2.309140   0.000000
   36        2.313730   0.000000
   37        2.706989   0.000000
   38        2.712983   0.000000
   39        3.253385   0.000000
   40        3.276942   0.000000
 
  0.4166667E+00  0.5551115E-16  0.0000000E+00  0.6944444E-02
    1      -42.179098   1.000000
    2      -42.179061   1.000000
    3      -39.842302   1.000000
    4      -39.842274   1.000000
    5      -39.690240   1.000000
    6      -39.690222   1.000000
    7      -17.833283   1.000000
    8      -17.832004   1.000000
    9      -17.504174   1.000000
   10      -17.502806   1.000000
   11      -10.943779   1.000000
   12      -10.943598   1.000000
   13       -9.952965   1.000000
   14       -9.952351   1.000000
   15       -9.408290   1.000000
   16       -9.407384   1.000000
   17       -8.540392   1.000000
   18       -8.540338   1.000000
   19       -7.225561   1.000000
   20       -7.225443   1.000000
   21       -6.638709   1.000000
   22       -6.638611   1.000000
   23       -6.246460   1.000000
   24       -6.246250   1.000000
   25       -3.433022   0.000000
   26       -3.432900   0.000000
   27       -3.002470   0.000000
   28       -3.001868   0.000000
   29       -1.802517   0.000000
   30       -1.802074   0.000000
   31       -1.382102   0.000000
   32       -1.381862   0.000000
   33        1.116040   0.000000
   34        1.116192   0.000000
   35        2.420795   0.000000
   36        2.437551   0.000000
   37        2.610823   0.000000
   38        2.625022   0.000000
   39        3.562463   0.000000
   40        3.637163   0.000000
 
  0.5000000E+00  0.2775558E-16  0.0000000E+00  0.6944444E-02
    1      -42.185874   1.000000
    2      -42.185848   1.000000
    3      -39.856280   1.000000
    4      -39.856235   1.000000
    5      -39.690922   1.000000
    6      -39.690904   1.000000
    7      -17.685917   1.000000
    8      -17.685870   1.000000
    9      -17.447898   1.000000
   10      -17.447849   1.000000
   11      -11.093154   1.000000
   12      -11.093163   1.000000
   13      -10.109754   1.000000
   14      -10.109735   1.000000
   15       -9.467136   1.000000
   16       -9.467124   1.000000
   17       -8.618490   1.000000
   18       -8.618481   1.000000
   19       -7.282919   1.000000
   20       -7.282878   1.000000
   21       -6.538235   1.000000
   22       -6.538200   1.000000
   23       -6.092356   1.000000
   24       -6.092343   1.000000
   25       -3.422726   0.000000
   26       -3.422660   0.000000
   27       -2.902549   0.000000
   28       -2.902510   0.000000
   29       -1.670194   0.000000
   30       -1.670179   0.000000
   31       -1.328199   0.000000
   32       -1.328182   0.000000
   33        0.638335   0.000000
   34        0.638346   0.000000
   35        2.449607   0.000000
   36        2.449619   0.000000
   37        2.778544   0.000000
   38        2.778546   0.000000
   39        3.650527   0.000000
   40        4.332984   0.000000
 
 -0.4166667E+00 -0.5551115E-16  0.0000000E+00  0.6944444E-02
    1      -42.179088   1.000000
    2      -42.179071   1.000000
    3      -39.842322   1.000000
    4      -39.842254   1.000000
    5      -39.690241   1.000000
    6      -39.690221   1.000000
    7      -17.833320   1.000000
    8      -17.831968   1.000000
    9      -17.504135   1.000000
   10      -17.502845   1.000000
   11      -10.943774   1.000000
   12      -10.943603   1.000000
   13       -9.952951   1.000000
   14       -9.952365   1.000000
   15       -9.408304   1.000000
   16       -9.407371   1.000000
   17       -8.540399   1.000000
   18       -8.540331   1.000000
   19       -7.225511   1.000000
   20       -7.225493   1.000000
   21       -6.638739   1.000000
   22       -6.638581   1.000000
   23       -6.246423   1.000000
   24       -6.246287   1.000000
   25       -3.433098   0.000000
   26       -3.432824   0.000000
   27       -3.002495   0.000000
   28       -3.001843   0.000000
   29       -1.802502   0.000000
   30       -1.802089   0.000000
   31       -1.382088   0.000000
   32       -1.381876   0.000000
   33        1.116055   0.000000
   34        1.116177   0.000000
   35        2.420791   0.000000
   36        2.437556   0.000000
   37        2.610823   0.000000
   38        2.625024   0.000000
   39        3.548902   0.000000
   40        3.917158   0.000000
 
 -0.3333333E+00  0.2775558E-16  0.0000000E+00  0.6944444E-02
    1      -42.160884   1.000000
    2      -42.160871   1.000000
    3      -39.804690   1.000000
    4      -39.804597   1.000000
    5      -39.687118   1.000000
    6      -39.687088   1.000000
    7      -18.202863   1.000000
    8      -18.201484   1.000000
    9      -17.647826   1.000000
   10      -17.646478   1.000000
   11      -10.588408   1.000000
   12      -10.588355   1.000000
   13       -9.529785   1.000000
   14       -9.526139   1.000000
   15       -9.345720   1.000000
   16       -9.341687   1.000000
   17       -8.313789   1.000000
   18       -8.313619   1.000000
   19       -7.054702   1.000000
   20       -7.054249   1.000000
   21       -6.915864   1.000000
   22       -6.915813   1.000000
   23       -6.396651   1.000000
   24       -6.396355   1.000000
   25       -3.399979   0.000000
   26       -3.399602   0.000000
   27       -3.190755   0.000000
   28       -3.190087   0.000000
   29       -2.183820   0.000000
   30       -2.183634   0.000000
   31       -1.554442   0.000000
   32       -1.554100   0.000000
   33        1.927363   0.000000
   34        1.927936   0.000000
   35        2.309146   0.000000
   36        2.313724   0.000000
   37        2.706985   0.000000
   38        2.712987   0.000000
   39        3.253205   0.000000
   40        3.276968   0.000000
 
 -0.2500000E+00 -0.1387779E-16  0.0000000E+00  0.6944444E-02
    1      -42.136784   1.000000
    2      -42.136774   1.000000
    3      -39.757804   1.000000
    4      -39.757687   1.000000
    5      -39.676522   1.000000
    6      -39.676472   1.000000
    7      -18.651972   1.000000
    8      -18.650912   1.000000
    9      -17.827360   1.000000
   10      -17.826301   1.000000
   11      -10.356324   1.000000
   12      -10.356081   1.000000
   13       -9.271583   1.000000
   14       -9.269799   1.000000
   15       -8.939543   1.000000
   16       -8.937585   1.000000
   17       -7.965490   1.000000
   18       -7.965027   1.000000
   19       -7.330770   1.000000
   20       -7.330082   1.000000
   21       -6.760046   1.000000
   22       -6.759530   1.000000
   23       -6.152758   1.000000
   24       -6.152070   1.000000
   25       -3.331850   0.000000
   26       -3.331208   0.000000
   27       -3.219014   0.000000
   28       -3.218407   0.000000
   29       -2.676096   0.000000
   30       -2.676003   0.000000
   31       -1.860660   0.000000
   32       -1.860218   0.000000
   33        1.415662   0.000000
   34        1.417747   0.000000
   35        2.503544   0.000000
   36        2.508887   0.000000
   37        3.000363   0.000000
   38        3.070596   0.000000
   39        3.273942   0.000000
   40        3.743748   0.000000
 
 -0.1666667E+00  0.1387779E-16  0.0000000E+00  0.6944444E-02
    1      -42.113569   1.000000
    2      -42.113559   1.000000
    3      -39.726558   1.000000
    4      -39.726459   1.000000
    5      -39.648120   1.000000
    6      -39.648070   1.000000
    7      -19.055541   1.000000
    8      -19.054834   1.000000
    9      -17.991377   1.000000
   10      -17.990669   1.000000
   11      -10.564615   1.000000
   12      -10.564351   1.000000
   13       -8.833200   1.000000
   14       -8.832624   1.000000
   15       -8.303376   1.000000
   16       -8.302537   1.000000
   17       -7.729538   1.000000
   18       -7.728102   1.000000
   19       -7.550027   1.000000
   20       -7.548384   1.000000
   21       -6.536132   1.000000
   22       -6.535143   1.000000
   23       -5.720481   1.000000
   24       -5.719418   1.000000
   25       -3.216324   0.000000
   26       -3.214405   0.000000
   27       -3.008126   0.000000
   28       -3.006519   0.000000
   29       -2.953450   0.000000
   30       -2.952871   0.000000
   31       -2.270663   0.000000
   32       -2.269973   0.000000
   33        0.862425   0.000000
   34        0.865461   0.000000
   35        1.963081   0.000000
   36        1.967162   0.000000
   37        2.308309   0.000000
   38        2.315539   0.000000
   39        2.861811   0.000000
   40        2.984077   0.000000
 
 -0.8333333E-01 -0.6938894E-17  0.0000000E+00  0.6944444E-02
    1      -42.097139   1.000000
    2      -42.097125   1.000000
    3      -39.715757   1.000000
    4      -39.715698   1.000000
    5      -39.613864   1.000000
    6      -39.613821   1.000000
    7      -19.329407   1.000000
    8      -19.329044   1.000000
    9      -18.103275   1.000000
   10      -18.102943   1.000000
   11      -10.845755   1.000000
   12      -10.845603   1.000000
   13       -8.331746   1.000000
   14       -8.331571   1.000000
   15       -8.009154   1.000000
   16       -8.008905   1.000000
   17       -7.670692   1.000000
   18       -7.670148   1.000000
   19       -7.185558   1.000000
   20       -7.185232   1.000000
   21       -6.636126   1.000000
   22       -6.635199   1.000000
   23       -5.459615   1.000000
   24       -5.458894   1.000000
   25       -2.972358   0.000000
   26       -2.968686   0.000000
   27       -2.838554   0.000000
   28       -2.834471   0.000000
   29       -2.715344   0.000000
   30       -2.712101   0.000000
   31       -2.648035   0.000000
   32       -2.644386   0.000000
   33        0.435492   0.000000
   34        0.439113   0.000000
   35        1.112698   0.000000
   36        1.116340   0.000000
   37        1.880336   0.000000
   38        1.883154   0.000000
   39        2.433754   0.000000
   40        3.100761   0.000000
 
  0.6938894E-17  0.8333333E-01  0.0000000E+00  0.6944444E-02
    1      -42.097146   1.000000
    2      -42.097118   1.000000
    3      -39.715741   1.000000
    4      -39.715714   1.000000
    5      -39.613864   1.000000
    6      -39.613821   1.000000
    7      -19.329386   1.000000
    8      -19.329066   1.000000
    9      -18.103302   1.000000
   10      -18.102917   1.000000
   11      -10.845751   1.000000
   12      -10.845607   1.000000
   13       -8.331729   1.000000
   14       -8.331588   1.000000
   15       -8.009139   1.000000
   16       -8.008920   1.000000
   17       -7.670684   1.000000
   18       -7.670156   1.000000
   19       -7.185565   1.000000
   20       -7.185225   1.000000
   21       -6.636144   1.000000
   22       -6.635180   1.000000
   23       -5.459616   1.000000
   24       -5.458894   1.000000
   25       -2.972351   0.000000
   26       -2.968692   0.000000
   27       -2.838552   0.000000
   28       -2.834473   0.000000
   29       -2.715346   0.000000
   30       -2.712099   0.000000
   31       -2.648038   0.000000
   32       -2.644384   0.000000
   33        0.435532   0.000000
   34        0.439073   0.000000
   35        1.112688   0.000000
   36        1.116351   0.000000
   37        1.880236   0.000000
   38        1.892241   0.000000
   39        2.433928   0.000000
   40        3.354694   0.000000
 
  0.8333333E-01  0.8333333E-01  0.0000000E+00  0.6944444E-02
    1      -42.108792   1.000000
    2      -42.107796   1.000000
    3      -39.722320   1.000000
    4      -39.721646   1.000000
    5      -39.639543   1.000000
    6      -39.637443   1.000000
    7      -19.144890   1.000000
    8      -19.142765   1.000000
    9      -18.027531   1.000000
   10      -18.026839   1.000000
   11      -10.647344   1.000000
   12      -10.644961   1.000000
   13       -8.688710   1.000000
   14       -8.677460   1.000000
   15       -8.091645   1.000000
   16       -8.090882   1.000000
   17       -7.836809   1.000000
   18       -7.811682   1.000000
   19       -7.541960   1.000000
   20       -7.539223   1.000000
   21       -6.461023   1.000000
   22       -6.438765   1.000000
   23       -5.626871   1.000000
   24       -5.620919   1.000000
   25       -3.144933   0.000000
   26       -3.136993   0.000000
   27       -3.108623   0.000000
   28       -3.058820   0.000000
   29       -2.901557   0.000000
   30       -2.879323   0.000000
   31       -2.366018   0.000000
   32       -2.317579   0.000000
   33        0.740604   0.000000
   34        0.744212   0.000000
   35        1.763384   0.000000
   36        1.769033   0.000000
   37        2.163059   0.000000
   38        2.217809   0.000000
   39        2.704870   0.000000
   40        2.863837   0.000000
 
  0.1666667E+00  0.8333333E-01  0.0000000E+00  0.6944444E-02
    1      -42.129464   1.000000
    2      -42.126741   1.000000
    3      -39.741832   1.000000
    4      -39.741689   1.000000
    5      -39.673102   1.000000
    6      -39.668983   1.000000
    7      -18.807100   1.000000
    8      -18.801005   1.000000
    9      -17.888677   1.000000
   10      -17.887565   1.000000
   11      -10.375837   1.000000
   12      -10.367114   1.000000
   13       -9.142278   1.000000
   14       -9.138136   1.000000
   15       -8.626845   1.000000
   16       -8.614811   1.000000
   17       -8.052892   1.000000
   18       -8.044475   1.000000
   19       -7.546046   1.000000
   20       -7.510966   1.000000
   21       -6.490826   1.000000
   22       -6.465002   1.000000
   23       -5.996819   1.000000
   24       -5.971870   1.000000
   25       -3.414999   0.000000
   26       -3.374254   0.000000
   27       -3.120688   0.000000
   28       -3.100799   0.000000
   29       -3.026761   0.000000
   30       -2.964280   0.000000
   31       -1.914888   0.000000
   32       -1.868698   0.000000
   33        1.230286   0.000000
   34        1.233906   0.000000
   35        2.483957   0.000000
   36        2.493245   0.000000
   37        2.721059   0.000000
   38        2.814286   0.000000
   39        3.302681   0.000000
   40        3.971280   0.000000
 
  0.2500000E+00  0.8333333E-01  0.0000000E+00  0.6944444E-02
    1      -42.154102   1.000000
    2      -42.149345   1.000000
    3      -39.784323   1.000000
    4      -39.780183   1.000000
    5      -39.690493   1.000000
    6      -39.687749   1.000000
    7      -18.380218   1.000000
    8      -18.368611   1.000000
    9      -17.714255   1.000000
   10      -17.712655   1.000000
   11      -10.395540   1.000000
   12      -10.383803   1.000000
   13       -9.325040   1.000000
   14       -9.315377   1.000000
   15       -9.257652   1.000000
   16       -9.244453   1.000000
   17       -8.389555   1.000000
   18       -8.378017   1.000000
   19       -7.300975   1.000000
   20       -7.244415   1.000000
   21       -6.763371   1.000000
   22       -6.743318   1.000000
   23       -6.329086   1.000000
   24       -6.269490   1.000000
   25       -3.514589   0.000000
   26       -3.442195   0.000000
   27       -3.178914   0.000000
   28       -3.142211   0.000000
   29       -2.632806   0.000000
   30       -2.584411   0.000000
   31       -1.548035   0.000000
   32       -1.511047   0.000000
   33        1.834197   0.000000
   34        1.841343   0.000000
   35        2.813181   0.000000
   36        2.818195   0.000000
   37        3.008732   0.000000
   38        3.014115   0.000000
   39        3.366877   0.000000
   40        3.438080   0.000000
 
  0.3333333E+00  0.8333333E-01  0.0000000E+00  0.6944444E-02
    1      -42.176095   1.000000
    2      -42.169547   1.000000
    3      -39.829087   1.000000
    4      -39.820775   1.000000
    5      -39.696143   1.000000
    6      -39.695030   1.000000
    7      -17.966970   1.000000
    8      -17.949308   1.000000
    9      -17.548098   1.000000
   10      -17.546108   1.000000
   11      -10.716013   1.000000
   12      -10.715570   1.000000
   13       -9.826391   1.000000
   14       -9.818720   1.000000
   15       -9.322848   1.000000
   16       -9.322063   1.000000
   17       -8.552224   1.000000
   18       -8.541660   1.000000
   19       -7.176244   1.000000
   20       -7.110513   1.000000
   21       -7.053976   1.000000
   22       -7.039163   1.000000
   23       -6.272516   1.000000
   24       -6.187227   1.000000
   25       -3.427356   0.000000
   26       -3.396002   0.000000
   27       -3.089043   0.000000
   28       -3.075029   0.000000
   29       -2.146187   0.000000
   30       -2.110613   0.000000
   31       -1.378021   0.000000
   32       -1.352624   0.000000
   33        1.720278   0.000000
   34        1.726842   0.000000
   35        2.524047   0.000000
   36        2.532259   0.000000
   37        2.896741   0.000000
   38        2.905769   0.000000
   39        3.566754   0.000000
   40        3.601678   0.000000
 
  0.4166667E+00  0.8333333E-01  0.0000000E+00  0.6944444E-02
    1      -42.189067   1.000000
    2      -42.181474   1.000000
    3      -39.855813   1.000000
    4      -39.845242   1.000000
    5      -39.697867   1.000000
    6      -39.697548   1.000000
    7      -17.703133   1.000000
    8      -17.681197   1.000000
    9      -17.444113   1.000000
   10      -17.442367   1.000000
   11      -10.965867   1.000000
   12      -10.954626   1.000000
   13      -10.152066   1.000000
   14      -10.146560   1.000000
   15       -9.421265   1.000000
   16       -9.414396   1.000000
   17       -8.612360   1.000000
   18       -8.602258   1.000000
   19       -7.256076   1.000000
   20       -7.250946   1.000000
   21       -7.033218   1.000000
   22       -6.969842   1.000000
   23       -6.048153   1.000000
   24       -5.953013   1.000000
   25       -3.413636   0.000000
   26       -3.371147   0.000000
   27       -2.947739   0.000000
   28       -2.851576   0.000000
   29       -1.755532   0.000000
   30       -1.724531   0.000000
   31       -1.434644   0.000000
   32       -1.413850   0.000000
   33        0.882198   0.000000
   34        0.898859   0.000000
   35        2.858174   0.000000
   36        2.875337   0.000000
   37        3.018203   0.000000
   38        3.036943   0.000000
   39        3.727673   0.000000
   40        4.595132   0.000000
 
  0.5000000E+00  0.8333333E-01  0.0000000E+00  0.6944444E-02
    1      -42.189067   1.000000
    2      -42.181474   1.000000
    3      -39.855813   1.000000
    4      -39.845241   1.000000
    5      -39.697867   1.000000
    6      -39.697548   1.000000
    7      -17.703134   1.000000
    8      -17.681196   1.000000
    9      -17.444094   1.000000
   10      -17.442385   1.000000
   11      -10.965868   1.000000
   12      -10.954627   1.000000
   13      -10.152067   1.000000
   14      -10.146562   1.000000
   15       -9.421264   1.000000
   16       -9.414395   1.000000
   17       -8.612357   1.000000
   18       -8.602255   1.000000
   19       -7.256078   1.000000
   20       -7.250947   1.000000
   21       -7.033220   1.000000
   22       -6.969845   1.000000
   23       -6.048151   1.000000
   24       -5.953011   1.000000
   25       -3.413637   0.000000
   26       -3.371147   0.000000
   27       -2.947737   0.000000
   28       -2.851573   0.000000
   29       -1.755514   0.000000
   30       -1.724509   0.000000
   31       -1.434668   0.000000
   32       -1.413871   0.000000
   33        0.882197   0.000000
   34        0.898858   0.000000
   35        2.858174   0.000000
   36        2.875340   0.000000
   37        3.018172   0.000000
   38        3.036919   0.000000
   39        3.715598   0.000000
   40        4.029024   0.000000
 
 -0.4166667E+00  0.8333333E-01  0.0000000E+00  0.6944444E-02
    1      -42.176095   1.000000
    2      -42.169547   1.000000
    3      -39.829087   1.000000
    4      -39.820775   1.000000
    5      -39.696143   1.000000
    6      -39.695030   1.000000
    7      -17.966973   1.000000
    8      -17.949305   1.000000
    9      -17.548069   1.000000
   10      -17.546135   1.000000
   11      -10.716013   1.000000
   12      -10.715573   1.000000
   13       -9.826395   1.000000
   14       -9.818726   1.000000
   15       -9.322864   1.000000
   16       -9.322046   1.000000
   17       -8.552218   1.000000
   18       -8.541654   1.000000
   19       -7.176248   1.000000
   20       -7.110520   1.000000
   21       -7.053976   1.000000
   22       -7.039171   1.000000
   23       -6.272509   1.000000
   24       -6.187221   1.000000
   25       -3.427359   0.000000
   26       -3.396004   0.000000
   27       -3.089038   0.000000
   28       -3.075022   0.000000
   29       -2.146173   0.000000
   30       -2.110597   0.000000
   31       -1.378041   0.000000
   32       -1.352643   0.000000
   33        1.720279   0.000000
   34        1.726841   0.000000
   35        2.524055   0.000000
   36        2.532247   0.000000
   37        2.896747   0.000000
   38        2.905766   0.000000
   39        3.558341   0.000000
   40        3.583608   0.000000
 
 -0.3333333E+00  0.8333333E-01  0.0000000E+00  0.6944444E-02
    1      -42.154102   1.000000
    2      -42.149346   1.000000
    3      -39.784323   1.000000
    4      -39.780182   1.000000
    5      -39.690493   1.000000
    6      -39.687748   1.000000
    7      -18.380222   1.000000
    8      -18.368608   1.000000
    9      -17.714224   1.000000
   10      -17.712684   1.000000
   11      -10.395541   1.000000
   12      -10.383804   1.000000
   13       -9.325034   1.000000
   14       -9.315388   1.000000
   15       -9.257662   1.000000
   16       -9.244452   1.000000
   17       -8.389549   1.000000
   18       -8.378011   1.000000
   19       -7.300978   1.000000
   20       -7.244418   1.000000
   21       -6.763374   1.000000
   22       -6.743323   1.000000
   23       -6.329078   1.000000
   24       -6.269482   1.000000
   25       -3.514596   0.000000
   26       -3.442202   0.000000
   27       -3.178906   0.000000
   28       -3.142203   0.000000
   29       -2.632802   0.000000
   30       -2.584406   0.000000
   31       -1.548043   0.000000
   32       -1.511053   0.000000
   33        1.834194   0.000000
   34        1.841346   0.000000
   35        2.813178   0.000000
   36        2.818192   0.000000
   37        3.008737   0.000000
   38        3.014100   0.000000
   39        3.379352   0.000000
   40        3.438715   0.000000
 
 -0.2500000E+00  0.8333333E-01  0.0000000E+00  0.6944444E-02
    1      -42.129463   1.000000
    2      -42.126741   1.000000
    3      -39.741857   1.000000
    4      -39.741663   1.000000
    5      -39.673103   1.000000
    6      -39.668983   1.000000
    7      -18.807106   1.000000
    8      -18.801001   1.000000
    9      -17.888644   1.000000
   10      -17.887596   1.000000
   11      -10.375837   1.000000
   12      -10.367114   1.000000
   13       -9.142283   1.000000
   14       -9.138139   1.000000
   15       -8.626844   1.000000
   16       -8.614807   1.000000
   17       -8.052897   1.000000
   18       -8.044479   1.000000
   19       -7.546044   1.000000
   20       -7.510964   1.000000
   21       -6.490826   1.000000