<?xml version="1.0" encoding="ISO-8859-1"?>
<modeling>
 <generator>
  <i name="program" type="string">vasp </i>
  <i name="version" type="string">5.4.1  </i>
  <i name="subversion" type="string">05Feb16 (build Feb 01 2017 11:38:15) complex                          parallel </i>
  <i name="platform" type="string">IFC91_ompi </i>
  <i name="date" type="string">2025 10 20 </i>
  <i name="time" type="string">17:03:14 </i>
 </generator>
 <incar>
  <i type="string" name="SYSTEM"> MoS2 SOC SCF (warm, 12x12x1)</i>
  <i type="int" name="ISTART">     0</i>
  <i type="string" name="PREC">accurate</i>
  <i type="string" name="ALGO"> All</i>
  <i type="logical" name="LSORBIT"> T  </i>
  <v name="SAXIS">      0.00000000      0.00000000      1.00000000</v>
  <i name="AMIX">      0.20000000</i>
  <i name="BMIX">      0.00010000</i>
  <i name="AMIX_MAG">      0.20000000</i>
  <i name="BMIX_MAG">      0.00010000</i>
  <i type="int" name="ICHARG">     2</i>
  <i type="int" name="NELM">   200</i>
  <i type="int" name="IBRION">    -1</i>
  <i name="EDIFF">      0.00000010</i>
  <i type="int" name="NSW">     0</i>
  <i type="int" name="ISIF">     2</i>
  <i type="int" name="ISYM">     0</i>
  <i name="ENCUT">    600.00000000</i>
  <i type="logical" name="LREAL"> F  </i>
  <i type="int" name="ISMEAR">     0</i>
  <i name="SIGMA">      0.05000000</i>
  <i type="int" name="NWRITE">     3</i>
  <i type="int" name="LMAXMIX">     4</i>
  <i type="logical" name="LWAVE"> T  </i>
  <i type="logical" name="LCHARG"> T  </i>
  <i type="logical" name="LASPH"> T  </i>
  <i type="logical" name="GGA_COMPAT"> F  </i>
  <v type="int" name="KPOINT_BSE">    -1     0     0     0</v>
  <i type="int" name="NELM">   200</i>
  <i type="logical" name="LDIPOL"> T  </i>
  <i type="int" name="IDIPOL">     3</i>
  <v name="DIPOL">      0.50000000      0.50000000      0.50000000</v>
  <i type="logical" name="LASPH"> T  </i>
 </incar>
 <kpoints>
  <generation param="Gamma">
   <v type="int" name="divisions">      12       12        1 </v>
   <v name="usershift">      0.00000000       0.00000000       0.00000000 </v>
   <v name="genvec1">      0.08333333       0.00000000       0.00000000 </v>
   <v name="genvec2">      0.00000000       0.08333333       0.00000000 </v>
   <v name="genvec3">      0.00000000       0.00000000       1.00000000 </v>
   <v name="shift">      0.00000000       0.00000000       0.00000000 </v>
  </generation>
  <varray name="kpointlist" >
   <v>       0.00000000       0.00000000       0.00000000 </v>
   <v>       0.08333333       0.00000000       0.00000000 </v>
   <v>       0.16666667      -0.00000000       0.00000000 </v>
   <v>       0.25000000       0.00000000       0.00000000 </v>
   <v>       0.33333333       0.00000000       0.00000000 </v>
   <v>       0.41666667       0.00000000       0.00000000 </v>
   <v>       0.50000000       0.00000000       0.00000000 </v>
   <v>      -0.41666667      -0.00000000       0.00000000 </v>
   <v>      -0.33333333       0.00000000       0.00000000 </v>
   <v>      -0.25000000      -0.00000000       0.00000000 </v>
   <v>      -0.16666667       0.00000000       0.00000000 </v>
   <v>      -0.08333333      -0.00000000       0.00000000 </v>
   <v>       0.00000000       0.08333333       0.00000000 </v>
   <v>       0.08333333       0.08333333       0.00000000 </v>
   <v>       0.16666667       0.08333333       0.00000000 </v>
   <v>       0.25000000       0.08333333       0.00000000 </v>
   <v>       0.33333333       0.08333333       0.00000000 </v>
   <v>       0.41666667       0.08333333       0.00000000 </v>
   <v>       0.50000000       0.08333333       0.00000000 </v>
   <v>      -0.41666667       0.08333333       0.00000000 </v>
   <v>      -0.33333333       0.08333333       0.00000000 </v>
   <v>      -0.25000000       0.08333333       0.00000000 </v>
   <v>      -0.16666667       0.08333333       0.00000000 </v>
   <v>      -0.08333333       0.08333333       0.00000000 </v>
   <v>      -0.00000000       0.16666667       0.00000000 </v>
   <v>       0.08333333       0.16666667       0.00000000 </v>
   <v>       0.16666667       0.16666667       0.00000000 </v>
   <v>       0.25000000       0.16666667       0.00000000 </v>
   <v>       0.33333333       0.16666667       0.00000000 </v>
   <v>       0.41666667       0.16666667       0.00000000 </v>
   <v>       0.50000000       0.16666667       0.00000000 </v>
   <v>      -0.41666667       0.16666667       0.00000000 </v>
   <v>      -0.33333333       0.16666667       0.00000000 </v>
   <v>      -0.25000000       0.16666667       0.00000000 </v>
   <v>      -0.16666667       0.16666667       0.00000000 </v>
   <v>      -0.08333333       0.16666667       0.00000000 </v>
   <v>       0.00000000       0.25000000       0.00000000 </v>
   <v>       0.08333333       0.25000000       0.00000000 </v>
   <v>       0.16666667       0.25000000       0.00000000 </v>
   <v>       0.25000000       0.25000000       0.00000000 </v>
   <v>       0.33333333       0.25000000       0.00000000 </v>
   <v>       0.41666667       0.25000000       0.00000000 </v>
   <v>       0.50000000       0.25000000       0.00000000 </v>
   <v>      -0.41666667       0.25000000       0.00000000 </v>
   <v>      -0.33333333       0.25000000       0.00000000 </v>
   <v>      -0.25000000       0.25000000       0.00000000 </v>
   <v>      -0.16666667       0.25000000       0.00000000 </v>
   <v>      -0.08333333       0.25000000       0.00000000 </v>
   <v>       0.00000000       0.33333333       0.00000000 </v>
   <v>       0.08333333       0.33333333       0.00000000 </v>
   <v>       0.16666667       0.33333333       0.00000000 </v>
   <v>       0.25000000       0.33333333       0.00000000 </v>
   <v>       0.33333333       0.33333333       0.00000000 </v>
   <v>       0.41666667       0.33333333       0.00000000 </v>
   <v>       0.50000000       0.33333333       0.00000000 </v>
   <v>      -0.41666667       0.33333333       0.00000000 </v>
   <v>      -0.33333333       0.33333333       0.00000000 </v>
   <v>      -0.25000000       0.33333333       0.00000000 </v>
   <v>      -0.16666667       0.33333333       0.00000000 </v>
   <v>      -0.08333333       0.33333333       0.00000000 </v>
   <v>       0.00000000       0.41666667       0.00000000 </v>
   <v>       0.08333333       0.41666667       0.00000000 </v>
   <v>       0.16666667       0.41666667       0.00000000 </v>
   <v>       0.25000000       0.41666667       0.00000000 </v>
   <v>       0.33333333       0.41666667       0.00000000 </v>
   <v>       0.41666667       0.41666667       0.00000000 </v>
   <v>       0.50000000       0.41666667       0.00000000 </v>
   <v>      -0.41666667       0.41666667       0.00000000 </v>
   <v>      -0.33333333       0.41666667       0.00000000 </v>
   <v>      -0.25000000       0.41666667       0.00000000 </v>
   <v>      -0.16666667       0.41666667       0.00000000 </v>
   <v>      -0.08333333       0.41666667       0.00000000 </v>
   <v>       0.00000000       0.50000000       0.00000000 </v>
   <v>       0.08333333       0.50000000       0.00000000 </v>
   <v>       0.16666667       0.50000000       0.00000000 </v>
   <v>       0.25000000       0.50000000       0.00000000 </v>
   <v>       0.33333333       0.50000000       0.00000000 </v>
   <v>       0.41666667       0.50000000       0.00000000 </v>
   <v>       0.50000000       0.50000000       0.00000000 </v>
   <v>      -0.41666667       0.50000000       0.00000000 </v>
   <v>      -0.33333333       0.50000000       0.00000000 </v>
   <v>      -0.25000000       0.50000000       0.00000000 </v>
   <v>      -0.16666667       0.50000000       0.00000000 </v>
   <v>      -0.08333333       0.50000000       0.00000000 </v>
   <v>      -0.00000000      -0.41666667       0.00000000 </v>
   <v>       0.08333333      -0.41666667       0.00000000 </v>
   <v>       0.16666667      -0.41666667       0.00000000 </v>
   <v>       0.25000000      -0.41666667       0.00000000 </v>
   <v>       0.33333333      -0.41666667       0.00000000 </v>
   <v>       0.41666667      -0.41666667       0.00000000 </v>
   <v>       0.50000000      -0.41666667       0.00000000 </v>
   <v>      -0.41666667      -0.41666667       0.00000000 </v>
   <v>      -0.33333333      -0.41666667       0.00000000 </v>
   <v>      -0.25000000      -0.41666667       0.00000000 </v>
   <v>      -0.16666667      -0.41666667       0.00000000 </v>
   <v>      -0.08333333      -0.41666667       0.00000000 </v>
   <v>       0.00000000      -0.33333333       0.00000000 </v>
   <v>       0.08333333      -0.33333333       0.00000000 </v>
   <v>       0.16666667      -0.33333333       0.00000000 </v>
   <v>       0.25000000      -0.33333333       0.00000000 </v>
   <v>       0.33333333      -0.33333333       0.00000000 </v>
   <v>       0.41666667      -0.33333333       0.00000000 </v>
   <v>       0.50000000      -0.33333333       0.00000000 </v>
   <v>      -0.41666667      -0.33333333       0.00000000 </v>
   <v>      -0.33333333      -0.33333333       0.00000000 </v>
   <v>      -0.25000000      -0.33333333       0.00000000 </v>
   <v>      -0.16666667      -0.33333333       0.00000000 </v>
   <v>      -0.08333333      -0.33333333       0.00000000 </v>
   <v>      -0.00000000      -0.25000000       0.00000000 </v>
   <v>       0.08333333      -0.25000000       0.00000000 </v>
   <v>       0.16666667      -0.25000000       0.00000000 </v>
   <v>       0.25000000      -0.25000000       0.00000000 </v>
   <v>       0.33333333      -0.25000000       0.00000000 </v>
   <v>       0.41666667      -0.25000000       0.00000000 </v>
   <v>       0.50000000      -0.25000000       0.00000000 </v>
   <v>      -0.41666667      -0.25000000       0.00000000 </v>
   <v>      -0.33333333      -0.25000000       0.00000000 </v>
   <v>      -0.25000000      -0.25000000       0.00000000 </v>
   <v>      -0.16666667      -0.25000000       0.00000000 </v>
   <v>      -0.08333333      -0.25000000       0.00000000 </v>
   <v>       0.00000000      -0.16666667       0.00000000 </v>
   <v>       0.08333333      -0.16666667       0.00000000 </v>
   <v>       0.16666667      -0.16666667       0.00000000 </v>
   <v>       0.25000000      -0.16666667       0.00000000 </v>
   <v>       0.33333333      -0.16666667       0.00000000 </v>
   <v>       0.41666667      -0.16666667       0.00000000 </v>
   <v>       0.50000000      -0.16666667       0.00000000 </v>
   <v>      -0.41666667      -0.16666667       0.00000000 </v>
   <v>      -0.33333333      -0.16666667       0.00000000 </v>
   <v>      -0.25000000      -0.16666667       0.00000000 </v>
   <v>      -0.16666667      -0.16666667       0.00000000 </v>
   <v>      -0.08333333      -0.16666667       0.00000000 </v>
   <v>      -0.00000000      -0.08333333       0.00000000 </v>
   <v>       0.08333333      -0.08333333       0.00000000 </v>
   <v>       0.16666667      -0.08333333       0.00000000 </v>
   <v>       0.25000000      -0.08333333       0.00000000 </v>
   <v>       0.33333333      -0.08333333       0.00000000 </v>
   <v>       0.41666667      -0.08333333       0.00000000 </v>
   <v>       0.50000000      -0.08333333       0.00000000 </v>
   <v>      -0.41666667      -0.08333333       0.00000000 </v>
   <v>      -0.33333333      -0.08333333       0.00000000 </v>
   <v>      -0.25000000      -0.08333333       0.00000000 </v>
   <v>      -0.16666667      -0.08333333       0.00000000 </v>
   <v>      -0.08333333      -0.08333333       0.00000000 </v>
  </varray>
  <varray name="weights" >
   <v>       0.00694444 </v>
   <v>       0.00694444 </v>
   <v>       0.00694444 </v>
   <v>       0.00694444 </v>
   <v>       0.00694444 </v>
   <v>       0.00694444 </v>
   <v>       0.00694444 </v>
   <v>       0.00694444 </v>
   <v>       0.00694444 </v>
   <v>       0.00694444 </v>
   <v>       0.00694444 </v>
   <v>       0.00694444 </v>
   <v>       0.00694444 </v>
   <v>       0.00694444 </v>
   <v>       0.00694444 </v>
   <v>       0.00694444 </v>
   <v>       0.00694444 </v>
   <v>       0.00694444 </v>
   <v>       0.00694444 </v>
   <v>       0.00694444 </v>
   <v>       0.00694444 </v>
   <v>       0.00694444 </v>
   <v>       0.00694444 </v>
   <v>       0.00694444 </v>
   <v>       0.00694444 </v>
   <v>       0.00694444 </v>
   <v>       0.00694444 </v>
   <v>       0.00694444 </v>
   <v>       0.00694444 </v>
   <v>       0.00694444 </v>
   <v>       0.00694444 </v>
   <v>       0.00694444 </v>
   <v>       0.00694444 </v>
   <v>       0.00694444 </v>
   <v>       0.00694444 </v>
   <v>       0.00694444 </v>
   <v>       0.00694444 </v>
   <v>       0.00694444 </v>
   <v>       0.00694444 </v>
   <v>       0.00694444 </v>
   <v>       0.00694444 </v>
   <v>       0.00694444 </v>
   <v>       0.00694444 </v>
   <v>       0.00694444 </v>
   <v>       0.00694444 </v>
   <v>       0.00694444 </v>
   <v>       0.00694444 </v>
   <v>       0.00694444 </v>
   <v>       0.00694444 </v>
   <v>       0.00694444 </v>
   <v>       0.00694444 </v>
   <v>       0.00694444 </v>
   <v>       0.00694444 </v>
   <v>       0.00694444 </v>
   <v>       0.00694444 </v>
   <v>       0.00694444 </v>
   <v>       0.00694444 </v>
   <v>       0.00694444 </v>
   <v>       0.00694444 </v>
   <v>       0.00694444 </v>
   <v>       0.00694444 </v>
   <v>       0.00694444 </v>
   <v>       0.00694444 </v>
   <v>       0.00694444 </v>
   <v>       0.00694444 </v>
   <v>       0.00694444 </v>
   <v>       0.00694444 </v>
   <v>       0.00694444 </v>
   <v>       0.00694444 </v>
   <v>       0.00694444 </v>
   <v>       0.00694444 </v>
   <v>       0.00694444 </v>
   <v>       0.00694444 </v>
   <v>       0.00694444 </v>
   <v>       0.00694444 </v>
   <v>       0.00694444 </v>
   <v>       0.00694444 </v>
   <v>       0.00694444 </v>
   <v>       0.00694444 </v>
   <v>       0.00694444 </v>
   <v>       0.00694444 </v>
   <v>       0.00694444 </v>
   <v>       0.00694444 </v>
   <v>       0.00694444 </v>
   <v>       0.00694444 </v>
   <v>       0.00694444 </v>
   <v>       0.00694444 </v>
   <v>       0.00694444 </v>
   <v>       0.00694444 </v>
   <v>       0.00694444 </v>
   <v>       0.00694444 </v>
   <v>       0.00694444 </v>
   <v>       0.00694444 </v>
   <v>       0.00694444 </v>
   <v>       0.00694444 </v>
   <v>       0.00694444 </v>
   <v>       0.00694444 </v>
   <v>       0.00694444 </v>
   <v>       0.00694444 </v>
   <v>       0.00694444 </v>
   <v>       0.00694444 </v>
   <v>       0.00694444 </v>
   <v>       0.00694444 </v>
   <v>       0.00694444 </v>
   <v>       0.00694444 </v>
   <v>       0.00694444 </v>
   <v>       0.00694444 </v>
   <v>       0.00694444 </v>
   <v>       0.00694444 </v>
   <v>       0.00694444 </v>
   <v>       0.00694444 </v>
   <v>       0.00694444 </v>
   <v>       0.00694444 </v>
   <v>       0.00694444 </v>
   <v>       0.00694444 </v>
   <v>       0.00694444 </v>
   <v>       0.00694444 </v>
   <v>       0.00694444 </v>
   <v>       0.00694444 </v>
   <v>       0.00694444 </v>
   <v>       0.00694444 </v>
   <v>       0.00694444 </v>
   <v>       0.00694444 </v>
   <v>       0.00694444 </v>
   <v>       0.00694444 </v>
   <v>       0.00694444 </v>
   <v>       0.00694444 </v>
   <v>       0.00694444 </v>
   <v>       0.00694444 </v>
   <v>       0.00694444 </v>
   <v>       0.00694444 </v>
   <v>       0.00694444 </v>
   <v>       0.00694444 </v>
   <v>       0.00694444 </v>
   <v>       0.00694444 </v>
   <v>       0.00694444 </v>
   <v>       0.00694444 </v>
   <v>       0.00694444 </v>
   <v>       0.00694444 </v>
   <v>       0.00694444 </v>
   <v>       0.00694444 </v>
   <v>       0.00694444 </v>
   <v>       0.00694444 </v>
   <v>       0.00694444 </v>
  </varray>
 </kpoints>
 <parameters>
  <separator name="general" >
   <i type="string" name="SYSTEM">MoS2 SOC SCF (warm, 12x12x1)</i>
   <i type="logical" name="LCOMPAT"> F  </i>
  </separator>
  <separator name="electronic" >
   <i type="string" name="PREC">accura</i>
   <i name="ENMAX">    600.00000000</i>
   <i name="ENAUG">    392.42700000</i>
   <i name="EDIFF">      0.00000010</i>
   <i type="int" name="IALGO">    58</i>
   <i type="int" name="IWAVPR">    10</i>
   <i type="int" name="NBANDS">    40</i>
   <i name="NELECT">     24.00000000</i>
   <i type="int" name="TURBO">     0</i>
   <i type="int" name="IRESTART">     0</i>
   <i type="int" name="NREBOOT">     0</i>
   <i type="int" name="NMIN">     0</i>
   <i name="EREF">      0.00000000</i>
   <separator name="electronic smearing" >
    <i type="int" name="ISMEAR">     0</i>
    <i name="SIGMA">      0.05000000</i>
    <i name="KSPACING">      0.50000000</i>
    <i type="logical" name="KGAMMA"> T  </i>
   </separator>
   <separator name="electronic projectors" >
    <i type="logical" name="LREAL"> F  </i>
    <v name="ROPT">      0.00000000      0.00000000</v>
    <i type="int" name="LMAXPAW">  -100</i>
    <i type="int" name="LMAXMIX">     4</i>
    <i type="logical" name="NLSPLINE"> F  </i>
   </separator>
   <separator name="electronic startup" >
    <i type="int" name="ISTART">     0</i>
    <i type="int" name="ICHARG">     2</i>
    <i type="int" name="INIWAV">     1</i>
   </separator>
   <separator name="electronic spin" >
    <i type="int" name="ISPIN">     1</i>
    <i type="logical" name="LNONCOLLINEAR"> T  </i>
    <v name="MAGMOM">      1.00000000      1.00000000      1.00000000      1.00000000      1.00000000      1.00000000      1.00000000      1.00000000      1.00000000</v>
    <i name="NUPDOWN">     -1.00000000</i>
    <i type="logical" name="LSORBIT"> T  </i>
    <v name="SAXIS">      0.00000000      0.00000000      1.00000000</v>
    <i type="logical" name="LSPIRAL"> F  </i>
    <v name="QSPIRAL">      0.00000000      0.00000000      0.00000000</v>
    <i type="logical" name="LZEROZ"> F  </i>
   </separator>
   <separator name="electronic exchange-correlation" >
    <i type="logical" name="LASPH"> T  </i>
    <i type="logical" name="LMETAGGA"> F  </i>
   </separator>
   <separator name="electronic convergence" >
    <i type="int" name="NELM">   200</i>
    <i type="int" name="NELMDL">    -5</i>
    <i type="int" name="NELMIN">     2</i>
    <i name="ENINI">    600.00000000</i>
    <separator name="electronic convergence detail" >
     <i type="logical" name="LDIAG"> T  </i>
     <i type="logical" name="LSUBROT"> F  </i>
     <i name="WEIMIN">      0.00000000</i>
     <i name="EBREAK">      0.00000000</i>
     <i name="DEPER">      0.30000000</i>
     <i type="int" name="NRMM">     4</i>
     <i name="TIME">      0.40000000</i>
    </separator>
   </separator>
   <separator name="electronic mixer" >
    <i name="AMIX">      0.20000000</i>
    <i name="BMIX">      0.00010000</i>
    <i name="AMIN">      0.10000000</i>
    <i name="AMIX_MAG">      0.20000000</i>
    <i name="BMIX_MAG">      0.00010000</i>
    <separator name="electronic mixer details" >
     <i type="int" name="IMIX">     4</i>
     <i type="logical" name="MIXFIRST"> F  </i>
     <i type="int" name="MAXMIX">   -45</i>
     <i name="WC">    100.00000000</i>
     <i type="int" name="INIMIX">     1</i>
     <i type="int" name="MIXPRE">     1</i>
     <i type="int" name="MREMOVE">     5</i>
    </separator>
   </separator>
   <separator name="electronic dipolcorrection" >
    <i type="logical" name="LDIPOL"> T  </i>
    <i type="logical" name="LMONO"> F  </i>
    <i type="int" name="IDIPOL">     3</i>
    <i name="EPSILON">      1.00000000</i>
    <v name="DIPOL">      0.50000000      0.50000000      0.50000000</v>
    <i name="EFIELD">      0.00000000</i>
   </separator>
  </separator>
  <separator name="grids" >
   <i type="int" name="NGX">    28</i>
   <i type="int" name="NGY">    28</i>
   <i type="int" name="NGZ">   280</i>
   <i type="int" name="NGXF">    56</i>
   <i type="int" name="NGYF">    56</i>
   <i type="int" name="NGZF">   560</i>
   <i type="logical" name="ADDGRID"> F  </i>
  </separator>
  <separator name="ionic" >
   <i type="int" name="NSW">     0</i>
   <i type="int" name="IBRION">    -1</i>
   <i type="int" name="ISIF">     2</i>
   <i name="PSTRESS">      0.00000000</i>
   <i name="EDIFFG">      0.00000100</i>
   <i type="int" name="NFREE">     0</i>
   <i name="POTIM">      0.50000000</i>
   <i name="SMASS">     -3.00000000</i>
   <i name="SCALEE">      1.00000000</i>
  </separator>
  <separator name="ionic md" >
   <i name="TEBEG">      0.00010000</i>
   <i name="TEEND">      0.00010000</i>
   <i type="int" name="NBLOCK">     1</i>
   <i type="int" name="KBLOCK">     1</i>
   <i type="int" name="NPACO">   256</i>
   <i name="APACO">     16.00000000</i>
  </separator>
  <separator name="symmetry" >
   <i type="int" name="ISYM">     0</i>
   <i name="SYMPREC">      0.00001000</i>
  </separator>
  <separator name="dos" >
   <i type="logical" name="LORBIT"> F  </i>
   <v name="RWIGS">     -1.00000000     -1.00000000</v>
   <i type="int" name="NEDOS">   301</i>
   <i name="EMIN">     10.00000000</i>
   <i name="EMAX">    -10.00000000</i>
   <i name="EFERMI">      0.00000000</i>
  </separator>
  <separator name="writing" >
   <i type="int" name="NWRITE">     3</i>
   <i type="logical" name="LWAVE"> T  </i>
   <i type="logical" name="LCHARG"> T  </i>
   <i type="logical" name="LPARD"> F  </i>
   <i type="logical" name="LVTOT"> F  </i>
   <i type="logical" name="LVHAR"> F  </i>
   <i type="logical" name="LELF"> F  </i>
   <i type="logical" name="LOPTICS"> F  </i>
   <v name="STM">      0.00000000      0.00000000      0.00000000      0.00000000      0.00000000      0.00000000      0.00000000</v>
  </separator>
  <separator name="performance" >
   <i type="int" name="NPAR">     8</i>
   <i type="int" name="NSIM">     4</i>
   <i type="int" name="NBLK">    -1</i>
   <i type="logical" name="LPLANE"> T  </i>
   <i type="logical" name="LSCALAPACK"> T  </i>
   <i type="logical" name="LSCAAWARE"> F  </i>
   <i type="logical" name="LSCALU"> F  </i>
   <i type="logical" name="LASYNC"> F  </i>
   <i type="logical" name="LORBITALREAL"> F  </i>
  </separator>
  <separator name="miscellaneous" >
   <i type="int" name="IDIOT">     3</i>
   <i type="logical" name="LMUSIC"> F  </i>
   <v name="POMASS">     95.94000000     32.06600000</v>
   <v name="DARWINR">      0.00000000      0.00000000</v>
   <v name="DARWINV">      1.00000000      1.00000000</v>
   <i type="logical" name="LCORR"> T  </i>
  </separator>
  <i type="logical" name="GGA_COMPAT"> F  </i>
  <i type="logical" name="LBERRY"> F  </i>
  <i type="int" name="ICORELEVEL">     0</i>
  <i type="logical" name="LDAU"> F  </i>
  <i type="int" name="I_CONSTRAINED_M">     0</i>
  <separator name="electronic exchange-correlation" >
   <i type="string" name="GGA">--</i>
   <i type="int" name="VOSKOWN">     0</i>
   <i type="logical" name="LHFCALC"> F  </i>
   <i type="string" name="PRECFOCK"></i>
   <i type="logical" name="LSYMGRAD"> F  </i>
   <i type="logical" name="LHFONE"> F  </i>
   <i type="logical" name="LRHFCALC"> F  </i>
   <i type="logical" name="LTHOMAS"> F  </i>
   <i type="logical" name="LMODELHF"> F  </i>
   <i name="ENCUT4O">     -1.00000000</i>
   <i type="int" name="EXXOEP">     0</i>
   <i type="int" name="FOURORBIT">     0</i>
   <i name="AEXX">      0.00000000</i>
   <i name="HFALPHA">      0.00000000</i>
   <i name="MCALPHA">      0.00000000</i>
   <i name="ALDAX">      1.00000000</i>
   <i name="AGGAX">      1.00000000</i>
   <i name="ALDAC">      1.00000000</i>
   <i name="AGGAC">      1.00000000</i>
   <i type="int" name="NKREDX">     1</i>
   <i type="int" name="NKREDY">     1</i>
   <i type="int" name="NKREDZ">     1</i>
   <i type="logical" name="SHIFTRED"> F  </i>
   <i type="logical" name="ODDONLY"> F  </i>
   <i type="logical" name="EVENONLY"> F  </i>
   <i type="int" name="LMAXFOCK">     0</i>
   <i type="int" name="NMAXFOCKAE">     0</i>
   <i type="logical" name="LFOCKAEDFT"> F  </i>
   <i name="HFSCREEN">      0.00000000</i>
   <i name="HFSCREENC">      0.00000000</i>
   <i type="int" name="NBANDSGWLOW">     0</i>
  </separator>
  <separator name="vdW DFT" >
   <i type="logical" name="LUSE_VDW"> F  </i>
   <i name="Zab_VDW">     -0.84910000</i>
   <i name="PARAM1">      0.12340000</i>
   <i name="PARAM2">      1.00000000</i>
   <i name="PARAM3">      0.00000000</i>
  </separator>
  <separator name="model GW" >
   <i type="int" name="MODEL_GW">     0</i>
   <i name="MODEL_EPS0">     63.11239540</i>
   <i name="MODEL_ALPHA">      1.00000000</i>
  </separator>
  <separator name="linear response parameters" >
   <i type="logical" name="LEPSILON"> F  </i>
   <i type="logical" name="LRPA"> F  </i>
   <i type="logical" name="LNABLA"> F  </i>
   <i type="logical" name="LVEL"> F  </i>
   <i type="int" name="KINTER">     0</i>
   <i name="CSHIFT">      0.10000000</i>
   <i name="OMEGAMAX">     -1.00000000</i>
   <i name="DEG_THRESHOLD">      0.00200000</i>
  </separator>
  <separator name="orbital magnetization" >
   <i type="logical" name="NUCIND"> F  </i>
   <v name="MAGPOS">      0.00000000      0.00000000      0.00000000</v>
   <i type="logical" name="LNICSALL"> T  </i>
   <i type="logical" name="ORBITALMAG"> F  </i>
   <i type="logical" name="LMAGBLOCH"> F  </i>
   <i type="logical" name="LCHIMAG"> F  </i>
   <i type="logical" name="LGAUGE"> T  </i>
   <i type="int" name="MAGATOM">     0</i>
   <v name="MAGDIPOL">      0.00000000      0.00000000      0.00000000</v>
   <v name="AVECCONST">      0.00000000      0.00000000      0.00000000</v>
  </separator>
  <separator name="response functions" >
   <i type="logical" name="LADDER"> F  </i>
   <i type="logical" name="LFXC"> F  </i>
   <i type="logical" name="LHARTREE"> T  </i>
   <i type="int" name="IBSE">     0</i>
   <v type="int" name="KPOINT">    -1     0     0     0</v>
   <i type="logical" name="LTCTE"> F  </i>
   <i type="logical" name="LTETE"> F  </i>
   <i type="logical" name="LTRIPLET"> F  </i>
   <i type="logical" name="LFXCEPS"> F  </i>
   <i type="logical" name="LFXHEG"> F  </i>
   <i type="int" name="NATURALO">     0</i>
   <i type="logical" name="L2ORDER"> F  </i>
   <i type="logical" name="LUSEW"> F  </i>
   <i name="ENCUTGW">     -2.00000000</i>
   <i name="ENCUTGWSOFT">     -2.00000000</i>
   <i name="ENCUTLF">     -1.00000000</i>
   <i type="int" name="LMAXMP2">    -1</i>
   <i name="SCISSOR">      0.00000000</i>
   <i type="int" name="NOMEGA">     0</i>
   <i type="int" name="NOMEGAR">     0</i>
   <i type="int" name="NBANDSGW">    -1</i>
   <i type="int" name="NBANDSO">    -1</i>
   <i type="int" name="NBANDSV">    -1</i>
   <i type="int" name="NELM">   200</i>
   <i type="int" name="NELMHF">     1</i>
   <i type="int" name="DIM">     3</i>
   <i type="int" name="ANTIRES">     0</i>
   <i name="OMEGAMAX">    -30.00000000</i>
   <i name="OMEGAMIN">    -30.00000000</i>
   <i name="OMEGATL">   -200.00000000</i>
   <i type="int" name="OMEGAGRID">     0</i>
   <i name="CSHIFT">     -0.10000000</i>
   <i type="logical" name="SELFENERGY"> F  </i>
   <i type="logical" name="LSPECTRAL"> F  </i>
   <i type="logical" name="LSPECTRALGW"> F  </i>
   <i type="logical" name="LSINGLES"> F  </i>
   <i type="logical" name="LFERMIGW"> F  </i>
   <i type="logical" name="ODDONLYGW"> F  </i>
   <i type="logical" name="EVENONLYGW"> F  </i>
   <i type="int" name="NKREDLFX">     1</i>
   <i type="int" name="NKREDLFY">     1</i>
   <i type="int" name="NKREDLFZ">     1</i>
   <i type="int" name="MAXMEM">  1800</i>
   <i type="int" name="TELESCOPE">     0</i>
   <i type="int" name="TAUPAR">     1</i>
   <i type="int" name="OMEGAPAR">    -1</i>
   <i name="LAMBDA">      1.00000000</i>
  </separator>
  <separator name="External order field" >
   <i name="OFIELD_KAPPA">      0.00000000</i>
   <v name="OFIELD_K">      0.00000000      0.00000000      0.00000000</v>
   <i name="OFIELD_Q6_NEAR">      0.00000000</i>
   <i name="OFIELD_Q6_FAR">      0.00000000</i>
   <i name="OFIELD_A">      0.00000000</i>
  </separator>
  <separator name="solvation model" >
   <i type="logical" name="LSOL"> F  </i>
  </separator>
 </parameters>
 <atominfo>
  <atoms>       3 </atoms>
  <types>       2 </types>
  <array name="atoms" >
   <dimension dim="1">ion</dimension>
   <field type="string">element</field>
   <field type="int">atomtype</field>
   <set>
    <rc><c>Mo</c><c>   1</c></rc>
    <rc><c>S </c><c>   2</c></rc>
    <rc><c>S </c><c>   2</c></rc>
   </set>
  </array>
  <array name="atomtypes" >
   <dimension dim="1">type</dimension>
   <field type="int">atomspertype</field>
   <field type="string">element</field>
   <field>mass</field>
   <field>valence</field>
   <field type="string">pseudopotential</field>
   <set>
    <rc><c>   1</c><c>Mo</c><c>     95.94000000</c><c>     12.00000000</c><c> PAW_PBE Mo_pv 08Apr2002                </c></rc>
    <rc><c>   2</c><c>S </c><c>     32.06600000</c><c>      6.00000000</c><c>  PAW_PBE S 17Jan2003                   </c></rc>
   </set>
  </array>
 </atominfo>
 <structure name="initialpos" >
  <crystal>
   <varray name="basis" >
    <v>       1.61415312      -2.79579451       0.00000000 </v>
    <v>       1.61415312       2.79579451       0.00000000 </v>
    <v>       0.00000000       0.00000000      34.96267827 </v>
   </varray>
   <i name="volume">    315.56197699 </i>
   <varray name="rec_basis" >
    <v>       0.30975996      -0.17884004       0.00000000 </v>
    <v>       0.30975996       0.17884004       0.00000000 </v>
    <v>       0.00000000       0.00000000       0.02860193 </v>
   </varray>
  </crystal>
  <varray name="positions" >
   <v>       0.66666700       0.33333300       0.10664700 </v>
   <v>       0.33333300       0.66666700       0.06198962 </v>
   <v>       0.33333300       0.66666700       0.15130538 </v>
  </varray>
 </structure>
 <calculation>
  <scstep>
   <time name="total">   50.02   50.02</time>
   <dipole>
    <v name="dipole">      0.00000000       0.00000000       0.42979289 </v>
    <i name="Tr[quadrupol]">    -56.02251097 </i>
    <i name="Echarged">      0.00000000 </i>
    <i name="Edipol_quadrupol">      0.00000000 </i>
    <i name="Eion">      0.00000000 </i>
   </dipole>
   <energy>
    <i name="alphaZ">     98.12405602 </i>
    <i name="ewald">  11561.09611740 </i>
    <i name="hartreedc"> -13126.39485841 </i>
    <i name="XCdc">     62.81762928 </i>
    <i name="pawpsdc">   1093.56890438 </i>
    <i name="pawaedc">  -1067.58196123 </i>
    <i name="eentropy">     -0.00252415 </i>
    <i name="bandstr">   -251.22331673 </i>
    <i name="atom">   1837.94417650 </i>
    <i name="e_fr_energy">    208.34822306 </i>
    <i name="e_wo_entrp">    208.35074721 </i>
    <i name="e_0_energy">    208.34948514 </i>
   </energy>
  </scstep>
  <scstep>
   <time name="total">   56.15   56.15</time>
   <dipole>
    <v name="dipole">      0.00000000       0.00000000       0.42979289 </v>
    <i name="Tr[quadrupol]">    -56.02251097 </i>
    <i name="Echarged">      0.00000000 </i>
    <i name="Edipol_quadrupol">      0.00000000 </i>
    <i name="Eion">      0.00000000 </i>
   </dipole>
   <energy>
    <i name="e_fr_energy">      3.96749191 </i>
    <i name="e_wo_entrp">      3.96782063 </i>
    <i name="e_0_energy">      3.96765627 </i>
   </energy>
  </scstep>
  <scstep>
   <time name="total">   53.90   53.90</time>
   <dipole>
    <v name="dipole">      0.00000000       0.00000000       0.42979289 </v>
    <i name="Tr[quadrupol]">    -56.02251097 </i>
    <i name="Echarged">      0.00000000 </i>
    <i name="Edipol_quadrupol">      0.00000000 </i>
    <i name="Eion">      0.00000000 </i>
   </dipole>
   <energy>
    <i name="e_fr_energy">    -20.57524327 </i>
    <i name="e_wo_entrp">    -20.57524327 </i>
    <i name="e_0_energy">    -20.57524327 </i>
   </energy>
  </scstep>
  <scstep>
   <time name="total">   51.74   51.74</time>
   <dipole>
    <v name="dipole">      0.00000000       0.00000000       0.42979289 </v>
    <i name="Tr[quadrupol]">    -56.02251097 </i>
    <i name="Echarged">      0.00000000 </i>
    <i name="Edipol_quadrupol">      0.00000000 </i>
    <i name="Eion">      0.00000000 </i>
   </dipole>
   <energy>
    <i name="e_fr_energy">    -21.49541039 </i>
    <i name="e_wo_entrp">    -21.49541039 </i>
    <i name="e_0_energy">    -21.49541039 </i>
   </energy>
  </scstep>
  <scstep>
   <time name="total">   59.88   59.88</time>
   <dipole>
    <v name="dipole">      0.00000000       0.00000000       0.42979289 </v>
    <i name="Tr[quadrupol]">    -56.02251097 </i>
    <i name="Echarged">      0.00000000 </i>
    <i name="Edipol_quadrupol">      0.00000000 </i>
    <i name="Eion">      0.00000000 </i>
   </dipole>
   <energy>
    <i name="e_fr_energy">    -21.52316810 </i>
    <i name="e_wo_entrp">    -21.52316810 </i>
    <i name="e_0_energy">    -21.52316810 </i>
   </energy>
  </scstep>
  <scstep>
   <time name="total">   46.59   46.60</time>
   <dipole>
    <v name="dipole">      0.00000000       0.00000000       0.65150800 </v>
    <i name="Tr[quadrupol]">    -63.90884476 </i>
    <i name="Echarged">      0.00000000 </i>
    <i name="Edipol_quadrupol">      0.00000000 </i>
    <i name="Eion">      0.00000000 </i>
   </dipole>
   <energy>
    <i name="e_fr_energy">    -16.90300661 </i>
    <i name="e_wo_entrp">    -16.90300657 </i>
    <i name="e_0_energy">    -16.90300659 </i>
   </energy>
  </scstep>
  <scstep>
   <time name="total">   46.39   46.39</time>
   <dipole>
    <v name="dipole">      0.00000000       0.00000000       0.10586772 </v>
    <i name="Tr[quadrupol]">    -53.25953014 </i>
    <i name="Echarged">      0.00000000 </i>
    <i name="Edipol_quadrupol">      0.00000000 </i>
    <i name="Eion">      0.00000000 </i>
   </dipole>
   <energy>
    <i name="e_fr_energy">    -20.99160199 </i>
    <i name="e_wo_entrp">    -20.99160199 </i>
    <i name="e_0_energy">    -20.99160199 </i>
   </energy>
  </scstep>
  <scstep>
   <time name="total">   46.58   46.59</time>
   <dipole>
    <v name="dipole">      0.00000000       0.00000000       0.15319843 </v>
    <i name="Tr[quadrupol]">    -54.33912953 </i>
    <i name="Echarged">      0.00000000 </i>
    <i name="Edipol_quadrupol">      0.00000000 </i>
    <i name="Eion">      0.00000000 </i>
   </dipole>
   <energy>
    <i name="e_fr_energy">    -21.45199864 </i>
    <i name="e_wo_entrp">    -21.45199864 </i>
    <i name="e_0_energy">    -21.45199864 </i>
   </energy>
  </scstep>
  <scstep>
   <time name="total">   46.42   46.42</time>
   <dipole>
    <v name="dipole">      0.00000000       0.00000000       0.23267402 </v>
    <i name="Tr[quadrupol]">    -55.83381970 </i>
    <i name="Echarged">      0.00000000 </i>
    <i name="Edipol_quadrupol">      0.00000000 </i>
    <i name="Eion">      0.00000000 </i>
   </dipole>
   <energy>
    <i name="e_fr_energy">    -21.63700816 </i>
    <i name="e_wo_entrp">    -21.63700816 </i>
    <i name="e_0_energy">    -21.63700816 </i>
   </energy>
  </scstep>
  <scstep>
   <time name="total">   46.33   46.33</time>
   <dipole>
    <v name="dipole">      0.00000000       0.00000000       0.19630243 </v>
    <i name="Tr[quadrupol]">    -54.80804225 </i>
    <i name="Echarged">      0.00000000 </i>
    <i name="Edipol_quadrupol">      0.00000000 </i>
    <i name="Eion">      0.00000000 </i>
   </dipole>
   <energy>
    <i name="e_fr_energy">    -21.69847834 </i>
    <i name="e_wo_entrp">    -21.69847834 </i>
    <i name="e_0_energy">    -21.69847834 </i>
   </energy>
  </scstep>
  <scstep>
   <time name="total">   46.39   46.39</time>
   <dipole>
    <v name="dipole">      0.00000000       0.00000000       0.19511845 </v>
    <i name="Tr[quadrupol]">    -54.76911506 </i>
    <i name="Echarged">      0.00000000 </i>
    <i name="Edipol_quadrupol">      0.00000000 </i>
    <i name="Eion">      0.00000000 </i>
   </dipole>
   <energy>
    <i name="e_fr_energy">    -21.72688439 </i>
    <i name="e_wo_entrp">    -21.72688439 </i>
    <i name="e_0_energy">    -21.72688439 </i>
   </energy>
  </scstep>
  <scstep>
   <time name="total">   46.44   46.44</time>
   <dipole>
    <v name="dipole">      0.00000000       0.00000000       0.20438300 </v>
    <i name="Tr[quadrupol]">    -54.99322806 </i>
    <i name="Echarged">      0.00000000 </i>
    <i name="Edipol_quadrupol">      0.00000000 </i>
    <i name="Eion">      0.00000000 </i>
   </dipole>
   <energy>
    <i name="e_fr_energy">    -21.73517936 </i>
    <i name="e_wo_entrp">    -21.73517936 </i>
    <i name="e_0_energy">    -21.73517936 </i>
   </energy>
  </scstep>
  <scstep>
   <time name="total">   46.45   46.45</time>
   <dipole>
    <v name="dipole">      0.00000000       0.00000000       0.19915485 </v>
    <i name="Tr[quadrupol]">    -54.82852962 </i>
    <i name="Echarged">      0.00000000 </i>
    <i name="Edipol_quadrupol">      0.00000000 </i>
    <i name="Eion">      0.00000000 </i>
   </dipole>
   <energy>
    <i name="e_fr_energy">    -21.73940995 </i>
    <i name="e_wo_entrp">    -21.73940995 </i>
    <i name="e_0_energy">    -21.73940995 </i>
   </energy>
  </scstep>
  <scstep>
   <time name="total">   46.56   46.56</time>
   <dipole>
    <v name="dipole">      0.00000000       0.00000000       0.20455220 </v>
    <i name="Tr[quadrupol]">    -54.91226466 </i>
    <i name="Echarged">      0.00000000 </i>
    <i name="Edipol_quadrupol">      0.00000000 </i>
    <i name="Eion">      0.00000000 </i>
   </dipole>
   <energy>
    <i name="e_fr_energy">    -21.74100522 </i>
    <i name="e_wo_entrp">    -21.74100522 </i>
    <i name="e_0_energy">    -21.74100522 </i>
   </energy>
  </scstep>
  <scstep>
   <time name="total">   46.51   46.51</time>
   <dipole>
    <v name="dipole">      0.00000000       0.00000000       0.20382958 </v>
    <i name="Tr[quadrupol]">    -54.88594537 </i>
    <i name="Echarged">      0.00000000 </i>
    <i name="Edipol_quadrupol">      0.00000000 </i>
    <i name="Eion">      0.00000000 </i>
   </dipole>
   <energy>
    <i name="e_fr_energy">    -21.74167485 </i>
    <i name="e_wo_entrp">    -21.74167485 </i>
    <i name="e_0_energy">    -21.74167485 </i>
   </energy>
  </scstep>
  <scstep>
   <time name="total">   46.46   46.47</time>
   <dipole>
    <v name="dipole">      0.00000000       0.00000000       0.20347499 </v>
    <i name="Tr[quadrupol]">    -54.88208093 </i>
    <i name="Echarged">      0.00000000 </i>
    <i name="Edipol_quadrupol">      0.00000000 </i>
    <i name="Eion">      0.00000000 </i>
   </dipole>
   <energy>
    <i name="e_fr_energy">    -21.74198096 </i>
    <i name="e_wo_entrp">    -21.74198096 </i>
    <i name="e_0_energy">    -21.74198096 </i>
   </energy>
  </scstep>
  <scstep>
   <time name="total">   46.36   46.36</time>
   <dipole>
    <v name="dipole">      0.00000000       0.00000000       0.20351563 </v>
    <i name="Tr[quadrupol]">    -54.88872665 </i>
    <i name="Echarged">      0.00000000 </i>
    <i name="Edipol_quadrupol">      0.00000000 </i>
    <i name="Eion">      0.00000000 </i>
   </dipole>
   <energy>
    <i name="e_fr_energy">    -21.74213860 </i>
    <i name="e_wo_entrp">    -21.74213860 </i>
    <i name="e_0_energy">    -21.74213860 </i>
   </energy>
  </scstep>
  <scstep>
   <time name="total">   46.45   46.45</time>
   <dipole>
    <v name="dipole">      0.00000000       0.00000000       0.20355364 </v>
    <i name="Tr[quadrupol]">    -54.89177054 </i>
    <i name="Echarged">      0.00000000 </i>
    <i name="Edipol_quadrupol">      0.00000000 </i>
    <i name="Eion">      0.00000000 </i>
   </dipole>
   <energy>
    <i name="e_fr_energy">    -21.74221734 </i>
    <i name="e_wo_entrp">    -21.74221734 </i>
    <i name="e_0_energy">    -21.74221734 </i>
   </energy>
  </scstep>
  <scstep>
   <time name="total">   46.50   46.50</time>
   <dipole>
    <v name="dipole">      0.00000000       0.00000000       0.20322702 </v>
    <i name="Tr[quadrupol]">    -54.88661093 </i>
    <i name="Echarged">      0.00000000 </i>
    <i name="Edipol_quadrupol">      0.00000000 </i>
    <i name="Eion">      0.00000000 </i>
   </dipole>
   <energy>
    <i name="e_fr_energy">    -21.74224854 </i>
    <i name="e_wo_entrp">    -21.74224854 </i>
    <i name="e_0_energy">    -21.74224854 </i>
   </energy>
  </scstep>
  <scstep>
   <time name="total">   46.34   46.35</time>
   <dipole>
    <v name="dipole">      0.00000000       0.00000000       0.20342418 </v>
    <i name="Tr[quadrupol]">    -54.89347881 </i>
    <i name="Echarged">      0.00000000 </i>
    <i name="Edipol_quadrupol">      0.00000000 </i>
    <i name="Eion">      0.00000000 </i>
   </dipole>
   <energy>
    <i name="e_fr_energy">    -21.74226027 </i>
    <i name="e_wo_entrp">    -21.74226027 </i>
    <i name="e_0_energy">    -21.74226027 </i>
   </energy>
  </scstep>
  <scstep>
   <time name="total">   46.48   46.48</time>
   <dipole>
    <v name="dipole">      0.00000000       0.00000000       0.20300903 </v>
    <i name="Tr[quadrupol]">    -54.88348231 </i>
    <i name="Echarged">      0.00000000 </i>
    <i name="Edipol_quadrupol">      0.00000000 </i>
    <i name="Eion">      0.00000000 </i>
   </dipole>
   <energy>
    <i name="e_fr_energy">    -21.74226415 </i>
    <i name="e_wo_entrp">    -21.74226415 </i>
    <i name="e_0_energy">    -21.74226415 </i>
   </energy>
  </scstep>
  <scstep>
   <time name="total">   46.28   46.28</time>
   <dipole>
    <v name="dipole">      0.00000000       0.00000000       0.20325034 </v>
    <i name="Tr[quadrupol]">    -54.88883321 </i>
    <i name="Echarged">      0.00000000 </i>
    <i name="Edipol_quadrupol">      0.00000000 </i>
    <i name="Eion">      0.00000000 </i>
   </dipole>
   <energy>
    <i name="e_fr_energy">    -21.74226561 </i>
    <i name="e_wo_entrp">    -21.74226561 </i>
    <i name="e_0_energy">    -21.74226561 </i>
   </energy>
  </scstep>
  <scstep>
   <time name="total">   46.46   46.47</time>
   <dipole>
    <v name="dipole">      0.00000000       0.00000000       0.20325901 </v>
    <i name="Tr[quadrupol]">    -54.88919070 </i>
    <i name="Echarged">      0.00000000 </i>
    <i name="Edipol_quadrupol">      0.00000000 </i>
    <i name="Eion">      0.00000000 </i>
   </dipole>
   <energy>
    <i name="e_fr_energy">    -21.74226636 </i>
    <i name="e_wo_entrp">    -21.74226636 </i>
    <i name="e_0_energy">    -21.74226636 </i>
   </energy>
  </scstep>
  <scstep>
   <time name="total">   46.49   46.49</time>
   <dipole>
    <v name="dipole">      0.00000000       0.00000000       0.20321167 </v>
    <i name="Tr[quadrupol]">    -54.88804018 </i>
    <i name="Echarged">      0.00000000 </i>
    <i name="Edipol_quadrupol">      0.00000000 </i>
    <i name="Eion">      0.00000000 </i>
   </dipole>
   <energy>
    <i name="e_fr_energy">    -21.74226662 </i>
    <i name="e_wo_entrp">    -21.74226662 </i>
    <i name="e_0_energy">    -21.74226662 </i>
   </energy>
  </scstep>
  <scstep>
   <time name="total">   46.41   46.41</time>
   <dipole>
    <v name="dipole">      0.00000000       0.00000000       0.20326903 </v>
    <i name="Tr[quadrupol]">    -54.88922115 </i>
    <i name="Echarged">      0.00000000 </i>
    <i name="Edipol_quadrupol">      0.00000000 </i>
    <i name="Eion">      0.00000000 </i>
   </dipole>
   <energy>
    <i name="alphaZ">     55.27911286 </i>
    <i name="ewald">  11561.09611740 </i>
    <i name="hartreedc"> -13127.81617858 </i>
    <i name="XCdc">     61.71547470 </i>
    <i name="pawpsdc">   1158.66231246 </i>
    <i name="pawaedc">  -1137.42304112 </i>
    <i name="eentropy">     -0.00000000 </i>
    <i name="bandstr">   -431.20024092 </i>
    <i name="atom">   1837.94417650 </i>
    <i name="e_fr_energy">    -21.74226670 </i>
    <i name="e_wo_entrp">    -21.74226670 </i>
    <i name="e_0_energy">    -21.74226670 </i>
   </energy>
  </scstep>
  <structure>
   <crystal>
    <varray name="basis" >
     <v>       1.61415312      -2.79579451       0.00000000 </v>
     <v>       1.61415312       2.79579451       0.00000000 </v>
     <v>       0.00000000       0.00000000      34.96267827 </v>
    </varray>
    <i name="volume">    315.56197699 </i>
    <varray name="rec_basis" >
     <v>       0.30975996      -0.17884004       0.00000000 </v>
     <v>       0.30975996       0.17884004       0.00000000 </v>
     <v>       0.00000000       0.00000000       0.02860193 </v>
    </varray>
   </crystal>
   <varray name="positions" >
    <v>       0.66666700       0.33333300       0.10664700 </v>
    <v>       0.33333300       0.66666700       0.06198962 </v>
    <v>       0.33333300       0.66666700       0.15130538 </v>
   </varray>
  </structure>
  <varray name="forces" >
   <v>       0.00000038       0.00006891      -0.02949408 </v>
   <v>      -0.00000018      -0.00003415       0.21005764 </v>
   <v>      -0.00000019      -0.00003476      -0.18056356 </v>
  </varray>
  <varray name="stress" >
   <v>      -6.07938470       0.00000472      -0.00000108 </v>
   <v>       0.00000477      -6.07953100       0.00000171 </v>
   <v>      -0.00000105       0.00000170      -1.33287495 </v>
  </varray>
  <energy>
   <i name="e_fr_energy">    -21.74226670 </i>
   <i name="e_wo_entrp">    -21.74226670 </i>
   <i name="e_0_energy">     -0.00000000 </i>
  </energy>
  <time name="totalsc"> 1222.61 1222.72</time>
  <eigenvalues>
   <array>
    <dimension dim="1">band</dimension>
    <dimension dim="2">kpoint</dimension>
    <dimension dim="3">spin</dimension>
    <field>eigene</field>
    <field>occ</field>
    <set>
     <set comment="spin 1">
      <set comment="kpoint 1">
       <r>  -42.0912    1.0000 </r>
       <r>  -42.0912    1.0000 </r>
       <r>  -39.7133    1.0000 </r>
       <r>  -39.7133    1.0000 </r>
       <r>  -39.5995    1.0000 </r>
       <r>  -39.5995    1.0000 </r>
       <r>  -19.4258    1.0000 </r>
       <r>  -19.4258    1.0000 </r>
       <r>  -18.1427    1.0000 </r>
       <r>  -18.1426    1.0000 </r>
       <r>  -10.9569    1.0000 </r>
       <r>  -10.9569    1.0000 </r>
       <r>   -8.1425    1.0000 </r>
       <r>   -8.1425    1.0000 </r>
       <r>   -8.0814    1.0000 </r>
       <r>   -8.0813    1.0000 </r>
       <r>   -7.1250    1.0000 </r>
       <r>   -7.1250    1.0000 </r>
       <r>   -7.0731    1.0000 </r>
       <r>   -7.0731    1.0000 </r>
       <r>   -6.9900    1.0000 </r>
       <r>   -6.9900    1.0000 </r>
       <r>   -5.3936    1.0000 </r>
       <r>   -5.3936    1.0000 </r>
       <r>   -2.8771    0.0000 </r>
       <r>   -2.8771    0.0000 </r>
       <r>   -2.7992    0.0000 </r>
       <r>   -2.7992    0.0000 </r>
       <r>   -2.5947    0.0000 </r>
       <r>   -2.5947    0.0000 </r>
       <r>   -2.5913    0.0000 </r>
       <r>   -2.5913    0.0000 </r>
       <r>    0.2110    0.0000 </r>
       <r>    0.2110    0.0000 </r>
       <r>    0.7527    0.0000 </r>
       <r>    0.7527    0.0000 </r>
       <r>    1.7428    0.0000 </r>
       <r>    1.7818    0.0000 </r>
       <r>    2.2980    0.0000 </r>
       <r>    3.3541    0.0000 </r>
      </set>
      <set comment="kpoint 2">
       <r>  -42.0971    1.0000 </r>
       <r>  -42.0971    1.0000 </r>
       <r>  -39.7157    1.0000 </r>
       <r>  -39.7157    1.0000 </r>
       <r>  -39.6139    1.0000 </r>
       <r>  -39.6138    1.0000 </r>
       <r>  -19.3294    1.0000 </r>
       <r>  -19.3291    1.0000 </r>
       <r>  -18.1033    1.0000 </r>
       <r>  -18.1029    1.0000 </r>
       <r>  -10.8457    1.0000 </r>
       <r>  -10.8456    1.0000 </r>
       <r>   -8.3317    1.0000 </r>
       <r>   -8.3316    1.0000 </r>
       <r>   -8.0091    1.0000 </r>
       <r>   -8.0089    1.0000 </r>
       <r>   -7.6707    1.0000 </r>
       <r>   -7.6702    1.0000 </r>
       <r>   -7.1856    1.0000 </r>
       <r>   -7.1852    1.0000 </r>
       <r>   -6.6362    1.0000 </r>
       <r>   -6.6352    1.0000 </r>
       <r>   -5.4596    1.0000 </r>
       <r>   -5.4589    1.0000 </r>
       <r>   -2.9723    0.0000 </r>
       <r>   -2.9687    0.0000 </r>
       <r>   -2.8386    0.0000 </r>
       <r>   -2.8345    0.0000 </r>
       <r>   -2.7153    0.0000 </r>
       <r>   -2.7121    0.0000 </r>
       <r>   -2.6480    0.0000 </r>
       <r>   -2.6444    0.0000 </r>
       <r>    0.4355    0.0000 </r>
       <r>    0.4391    0.0000 </r>
       <r>    1.1127    0.0000 </r>
       <r>    1.1164    0.0000 </r>
       <r>    1.8802    0.0000 </r>
       <r>    1.8945    0.0000 </r>
       <r>    2.4342    0.0000 </r>
       <r>    3.0011    0.0000 </r>
      </set>
      <set comment="kpoint 3">
       <r>  -42.1136    1.0000 </r>
       <r>  -42.1135    1.0000 </r>
       <r>  -39.7265    1.0000 </r>
       <r>  -39.7265    1.0000 </r>
       <r>  -39.6481    1.0000 </r>
       <r>  -39.6481    1.0000 </r>
       <r>  -19.0555    1.0000 </r>
       <r>  -19.0549    1.0000 </r>
       <r>  -17.9914    1.0000 </r>
       <r>  -17.9906    1.0000 </r>
       <r>  -10.5646    1.0000 </r>
       <r>  -10.5644    1.0000 </r>
       <r>   -8.8332    1.0000 </r>
       <r>   -8.8326    1.0000 </r>
       <r>   -8.3034    1.0000 </r>
       <r>   -8.3025    1.0000 </r>
       <r>   -7.7295    1.0000 </r>
       <r>   -7.7281    1.0000 </r>
       <r>   -7.5500    1.0000 </r>
       <r>   -7.5484    1.0000 </r>
       <r>   -6.5362    1.0000 </r>
       <r>   -6.5351    1.0000 </r>
       <r>   -5.7205    1.0000 </r>
       <r>   -5.7194    1.0000 </r>
       <r>   -3.2163    0.0000 </r>
       <r>   -3.2144    0.0000 </r>
       <r>   -3.0081    0.0000 </r>
       <r>   -3.0065    0.0000 </r>
       <r>   -2.9535    0.0000 </r>
       <r>   -2.9529    0.0000 </r>
       <r>   -2.2707    0.0000 </r>
       <r>   -2.2700    0.0000 </r>
       <r>    0.8625    0.0000 </r>
       <r>    0.8654    0.0000 </r>
       <r>    1.9630    0.0000 </r>
       <r>    1.9672    0.0000 </r>
       <r>    2.3069    0.0000 </r>
       <r>    2.3088    0.0000 </r>
       <r>    2.8587    0.0000 </r>
       <r>    3.4282    0.0000 </r>
      </set>
      <set comment="kpoint 4">
       <r>  -42.1368    1.0000 </r>
       <r>  -42.1368    1.0000 </r>
       <r>  -39.7577    1.0000 </r>
       <r>  -39.7577    1.0000 </r>
       <r>  -39.6765    1.0000 </r>
       <r>  -39.6765    1.0000 </r>
       <r>  -18.6519    1.0000 </r>
       <r>  -18.6509    1.0000 </r>
       <r>  -17.8274    1.0000 </r>
       <r>  -17.8263    1.0000 </r>
       <r>  -10.3563    1.0000 </r>
       <r>  -10.3561    1.0000 </r>
       <r>   -9.2716    1.0000 </r>
       <r>   -9.2698    1.0000 </r>
       <r>   -8.9395    1.0000 </r>
       <r>   -8.9376    1.0000 </r>
       <r>   -7.9655    1.0000 </r>
       <r>   -7.9650    1.0000 </r>
       <r>   -7.3308    1.0000 </r>
       <r>   -7.3301    1.0000 </r>
       <r>   -6.7601    1.0000 </r>
       <r>   -6.7595    1.0000 </r>
       <r>   -6.1528    1.0000 </r>
       <r>   -6.1521    1.0000 </r>
       <r>   -3.3318    0.0000 </r>
       <r>   -3.3312    0.0000 </r>
       <r>   -3.2190    0.0000 </r>
       <r>   -3.2184    0.0000 </r>
       <r>   -2.6761    0.0000 </r>
       <r>   -2.6760    0.0000 </r>
       <r>   -1.8607    0.0000 </r>
       <r>   -1.8602    0.0000 </r>
       <r>    1.4157    0.0000 </r>
       <r>    1.4177    0.0000 </r>
       <r>    2.5035    0.0000 </r>
       <r>    2.5089    0.0000 </r>
       <r>    3.0112    0.0000 </r>
       <r>    3.1234    0.0000 </r>
       <r>    3.3194    0.0000 </r>
       <r>    3.6108    0.0000 </r>
      </set>
      <set comment="kpoint 5">
       <r>  -42.1609    1.0000 </r>
       <r>  -42.1609    1.0000 </r>
       <r>  -39.8046    1.0000 </r>
       <r>  -39.8046    1.0000 </r>
       <r>  -39.6871    1.0000 </r>
       <r>  -39.6871    1.0000 </r>
       <r>  -18.2028    1.0000 </r>
       <r>  -18.2015    1.0000 </r>
       <r>  -17.6479    1.0000 </r>
       <r>  -17.6464    1.0000 </r>
       <r>  -10.5884    1.0000 </r>
       <r>  -10.5884    1.0000 </r>
       <r>   -9.5298    1.0000 </r>
       <r>   -9.5261    1.0000 </r>
       <r>   -9.3457    1.0000 </r>
       <r>   -9.3417    1.0000 </r>
       <r>   -8.3138    1.0000 </r>
       <r>   -8.3136    1.0000 </r>
       <r>   -7.0547    1.0000 </r>
       <r>   -7.0542    1.0000 </r>
       <r>   -6.9159    1.0000 </r>
       <r>   -6.9158    1.0000 </r>
       <r>   -6.3967    1.0000 </r>
       <r>   -6.3963    1.0000 </r>
       <r>   -3.3999    0.0000 </r>
       <r>   -3.3996    0.0000 </r>
       <r>   -3.1907    0.0000 </r>
       <r>   -3.1901    0.0000 </r>
       <r>   -2.1838    0.0000 </r>
       <r>   -2.1836    0.0000 </r>
       <r>   -1.5545    0.0000 </r>
       <r>   -1.5541    0.0000 </r>
       <r>    1.9274    0.0000 </r>
       <r>    1.9279    0.0000 </r>
       <r>    2.3091    0.0000 </r>
       <r>    2.3137    0.0000 </r>
       <r>    2.7070    0.0000 </r>
       <r>    2.7130    0.0000 </r>
       <r>    3.2534    0.0000 </r>
       <r>    3.2769    0.0000 </r>
      </set>
      <set comment="kpoint 6">
       <r>  -42.1791    1.0000 </r>
       <r>  -42.1791    1.0000 </r>
       <r>  -39.8423    1.0000 </r>
       <r>  -39.8423    1.0000 </r>
       <r>  -39.6902    1.0000 </r>
       <r>  -39.6902    1.0000 </r>
       <r>  -17.8333    1.0000 </r>
       <r>  -17.8320    1.0000 </r>
       <r>  -17.5042    1.0000 </r>
       <r>  -17.5028    1.0000 </r>
       <r>  -10.9438    1.0000 </r>
       <r>  -10.9436    1.0000 </r>
       <r>   -9.9530    1.0000 </r>
       <r>   -9.9524    1.0000 </r>
       <r>   -9.4083    1.0000 </r>
       <r>   -9.4074    1.0000 </r>
       <r>   -8.5404    1.0000 </r>
       <r>   -8.5403    1.0000 </r>
       <r>   -7.2256    1.0000 </r>
       <r>   -7.2254    1.0000 </r>
       <r>   -6.6387    1.0000 </r>
       <r>   -6.6386    1.0000 </r>
       <r>   -6.2465    1.0000 </r>
       <r>   -6.2462    1.0000 </r>
       <r>   -3.4330    0.0000 </r>
       <r>   -3.4329    0.0000 </r>
       <r>   -3.0025    0.0000 </r>
       <r>   -3.0019    0.0000 </r>
       <r>   -1.8025    0.0000 </r>
       <r>   -1.8021    0.0000 </r>
       <r>   -1.3821    0.0000 </r>
       <r>   -1.3819    0.0000 </r>
       <r>    1.1160    0.0000 </r>
       <r>    1.1162    0.0000 </r>
       <r>    2.4208    0.0000 </r>
       <r>    2.4376    0.0000 </r>
       <r>    2.6108    0.0000 </r>
       <r>    2.6250    0.0000 </r>
       <r>    3.5625    0.0000 </r>
       <r>    3.6372    0.0000 </r>
      </set>
      <set comment="kpoint 7">
       <r>  -42.1859    1.0000 </r>
       <r>  -42.1858    1.0000 </r>
       <r>  -39.8563    1.0000 </r>
       <r>  -39.8562    1.0000 </r>
       <r>  -39.6909    1.0000 </r>
       <r>  -39.6909    1.0000 </r>
       <r>  -17.6859    1.0000 </r>
       <r>  -17.6859    1.0000 </r>
       <r>  -17.4479    1.0000 </r>
       <r>  -17.4478    1.0000 </r>
       <r>  -11.0932    1.0000 </r>
       <r>  -11.0932    1.0000 </r>
       <r>  -10.1098    1.0000 </r>
       <r>  -10.1097    1.0000 </r>
       <r>   -9.4671    1.0000 </r>
       <r>   -9.4671    1.0000 </r>
       <r>   -8.6185    1.0000 </r>
       <r>   -8.6185    1.0000 </r>
       <r>   -7.2829    1.0000 </r>
       <r>   -7.2829    1.0000 </r>
       <r>   -6.5382    1.0000 </r>
       <r>   -6.5382    1.0000 </r>
       <r>   -6.0924    1.0000 </r>
       <r>   -6.0923    1.0000 </r>
       <r>   -3.4227    0.0000 </r>
       <r>   -3.4227    0.0000 </r>
       <r>   -2.9025    0.0000 </r>
       <r>   -2.9025    0.0000 </r>
       <r>   -1.6702    0.0000 </r>
       <r>   -1.6702    0.0000 </r>
       <r>   -1.3282    0.0000 </r>
       <r>   -1.3282    0.0000 </r>
       <r>    0.6383    0.0000 </r>
       <r>    0.6383    0.0000 </r>
       <r>    2.4496    0.0000 </r>
       <r>    2.4496    0.0000 </r>
       <r>    2.7785    0.0000 </r>
       <r>    2.7785    0.0000 </r>
       <r>    3.6505    0.0000 </r>
       <r>    4.3330    0.0000 </r>
      </set>
      <set comment="kpoint 8">
       <r>  -42.1791    1.0000 </r>
       <r>  -42.1791    1.0000 </r>
       <r>  -39.8423    1.0000 </r>
       <r>  -39.8423    1.0000 </r>
       <r>  -39.6902    1.0000 </r>
       <r>  -39.6902    1.0000 </r>
       <r>  -17.8333    1.0000 </r>
       <r>  -17.8320    1.0000 </r>
       <r>  -17.5041    1.0000 </r>
       <r>  -17.5028    1.0000 </r>
       <r>  -10.9438    1.0000 </r>
       <r>  -10.9436    1.0000 </r>
       <r>   -9.9530    1.0000 </r>
       <r>   -9.9524    1.0000 </r>
       <r>   -9.4083    1.0000 </r>
       <r>   -9.4074    1.0000 </r>
       <r>   -8.5404    1.0000 </r>
       <r>   -8.5403    1.0000 </r>
       <r>   -7.2255    1.0000 </r>
       <r>   -7.2255    1.0000 </r>
       <r>   -6.6387    1.0000 </r>
       <r>   -6.6386    1.0000 </r>
       <r>   -6.2464    1.0000 </r>
       <r>   -6.2463    1.0000 </r>
       <r>   -3.4331    0.0000 </r>
       <r>   -3.4328    0.0000 </r>
       <r>   -3.0025    0.0000 </r>
       <r>   -3.0018    0.0000 </r>
       <r>   -1.8025    0.0000 </r>
       <r>   -1.8021    0.0000 </r>
       <r>   -1.3821    0.0000 </r>
       <r>   -1.3819    0.0000 </r>
       <r>    1.1161    0.0000 </r>
       <r>    1.1162    0.0000 </r>
       <r>    2.4208    0.0000 </r>
       <r>    2.4376    0.0000 </r>
       <r>    2.6108    0.0000 </r>
       <r>    2.6250    0.0000 </r>
       <r>    3.5489    0.0000 </r>
       <r>    3.9172    0.0000 </r>
      </set>
      <set comment="kpoint 9">
       <r>  -42.1609    1.0000 </r>
       <r>  -42.1609    1.0000 </r>
       <r>  -39.8047    1.0000 </r>
       <r>  -39.8046    1.0000 </r>
       <r>  -39.6871    1.0000 </r>
       <r>  -39.6871    1.0000 </r>
       <r>  -18.2029    1.0000 </r>
       <r>  -18.2015    1.0000 </r>
       <r>  -17.6478    1.0000 </r>
       <r>  -17.6465    1.0000 </r>
       <r>  -10.5884    1.0000 </r>
       <r>  -10.5884    1.0000 </r>
       <r>   -9.5298    1.0000 </r>
       <r>   -9.5261    1.0000 </r>
       <r>   -9.3457    1.0000 </r>
       <r>   -9.3417    1.0000 </r>
       <r>   -8.3138    1.0000 </r>
       <r>   -8.3136    1.0000 </r>
       <r>   -7.0547    1.0000 </r>
       <r>   -7.0542    1.0000 </r>
       <r>   -6.9159    1.0000 </r>
       <r>   -6.9158    1.0000 </r>
       <r>   -6.3967    1.0000 </r>
       <r>   -6.3964    1.0000 </r>
       <r>   -3.4000    0.0000 </r>
       <r>   -3.3996    0.0000 </r>
       <r>   -3.1908    0.0000 </r>
       <r>   -3.1901    0.0000 </r>
       <r>   -2.1838    0.0000 </r>
       <r>   -2.1836    0.0000 </r>
       <r>   -1.5544    0.0000 </r>
       <r>   -1.5541    0.0000 </r>
       <r>    1.9274    0.0000 </r>
       <r>    1.9279    0.0000 </r>
       <r>    2.3091    0.0000 </r>
       <r>    2.3137    0.0000 </r>
       <r>    2.7070    0.0000 </r>
       <r>    2.7130    0.0000 </r>
       <r>    3.2532    0.0000 </r>
       <r>    3.2770    0.0000 </r>
      </set>
      <set comment="kpoint 10">
       <r>  -42.1368    1.0000 </r>
       <r>  -42.1368    1.0000 </r>
       <r>  -39.7578    1.0000 </r>
       <r>  -39.7577    1.0000 </r>
       <r>  -39.6765    1.0000 </r>
       <r>  -39.6765    1.0000 </r>
       <r>  -18.6520    1.0000 </r>
       <r>  -18.6509    1.0000 </r>
       <r>  -17.8274    1.0000 </r>
       <r>  -17.8263    1.0000 </r>
       <r>  -10.3563    1.0000 </r>
       <r>  -10.3561    1.0000 </r>
       <r>   -9.2716    1.0000 </r>
       <r>   -9.2698    1.0000 </r>
       <r>   -8.9395    1.0000 </r>
       <r>   -8.9376    1.0000 </r>
       <r>   -7.9655    1.0000 </r>
       <r>   -7.9650    1.0000 </r>
       <r>   -7.3308    1.0000 </r>
       <r>   -7.3301    1.0000 </r>
       <r>   -6.7600    1.0000 </r>
       <r>   -6.7595    1.0000 </r>
       <r>   -6.1528    1.0000 </r>
       <r>   -6.1521    1.0000 </r>
       <r>   -3.3319    0.0000 </r>
       <r>   -3.3312    0.0000 </r>
       <r>   -3.2190    0.0000 </r>
       <r>   -3.2184    0.0000 </r>
       <r>   -2.6761    0.0000 </r>
       <r>   -2.6760    0.0000 </r>
       <r>   -1.8607    0.0000 </r>
       <r>   -1.8602    0.0000 </r>
       <r>    1.4157    0.0000 </r>
       <r>    1.4177    0.0000 </r>
       <r>    2.5035    0.0000 </r>
       <r>    2.5089    0.0000 </r>
       <r>    3.0004    0.0000 </r>
       <r>    3.0706    0.0000 </r>
       <r>    3.2739    0.0000 </r>
       <r>    3.7437    0.0000 </r>
      </set>
      <set comment="kpoint 11">
       <r>  -42.1136    1.0000 </r>
       <r>  -42.1136    1.0000 </r>
       <r>  -39.7266    1.0000 </r>
       <r>  -39.7265    1.0000 </r>
       <r>  -39.6481    1.0000 </r>
       <r>  -39.6481    1.0000 </r>
       <r>  -19.0555    1.0000 </r>
       <r>  -19.0548    1.0000 </r>
       <r>  -17.9914    1.0000 </r>
       <r>  -17.9907    1.0000 </r>
       <r>  -10.5646    1.0000 </r>
       <r>  -10.5644    1.0000 </r>
       <r>   -8.8332    1.0000 </r>
       <r>   -8.8326    1.0000 </r>
       <r>   -8.3034    1.0000 </r>
       <r>   -8.3025    1.0000 </r>
       <r>   -7.7295    1.0000 </r>
       <r>   -7.7281    1.0000 </r>
       <r>   -7.5500    1.0000 </r>
       <r>   -7.5484    1.0000 </r>
       <r>   -6.5361    1.0000 </r>
       <r>   -6.5351    1.0000 </r>
       <r>   -5.7205    1.0000 </r>
       <r>   -5.7194    1.0000 </r>
       <r>   -3.2163    0.0000 </r>
       <r>   -3.2144    0.0000 </r>
       <r>   -3.0081    0.0000 </r>
       <r>   -3.0065    0.0000 </r>
       <r>   -2.9535    0.0000 </r>
       <r>   -2.9529    0.0000 </r>
       <r>   -2.2707    0.0000 </r>
       <r>   -2.2700    0.0000 </r>
       <r>    0.8624    0.0000 </r>
       <r>    0.8655    0.0000 </r>
       <r>    1.9631    0.0000 </r>
       <r>    1.9672    0.0000 </r>
       <r>    2.3083    0.0000 </r>
       <r>    2.3155    0.0000 </r>
       <r>    2.8618    0.0000 </r>
       <r>    2.9841    0.0000 </r>
      </set>
      <set comment="kpoint 12">
       <r>  -42.0971    1.0000 </r>
       <r>  -42.0971    1.0000 </r>
       <r>  -39.7158    1.0000 </r>
       <r>  -39.7157    1.0000 </r>
       <r>  -39.6139    1.0000 </r>
       <r>  -39.6138    1.0000 </r>
       <r>  -19.3294    1.0000 </r>
       <r>  -19.3290    1.0000 </r>
       <r>  -18.1033    1.0000 </r>
       <r>  -18.1029    1.0000 </r>
       <r>  -10.8458    1.0000 </r>
       <r>  -10.8456    1.0000 </r>
       <r>   -8.3317    1.0000 </r>
       <r>   -8.3316    1.0000 </r>
       <r>   -8.0092    1.0000 </r>
       <r>   -8.0089    1.0000 </r>
       <r>   -7.6707    1.0000 </r>
       <r>   -7.6701    1.0000 </r>
       <r>   -7.1856    1.0000 </r>
       <r>   -7.1852    1.0000 </r>
       <r>   -6.6361    1.0000 </r>
       <r>   -6.6352    1.0000 </r>
       <r>   -5.4596    1.0000 </r>
       <r>   -5.4589    1.0000 </r>
       <r>   -2.9724    0.0000 </r>
       <r>   -2.9687    0.0000 </r>
       <r>   -2.8386    0.0000 </r>
       <r>   -2.8345    0.0000 </r>
       <r>   -2.7153    0.0000 </r>
       <r>   -2.7121    0.0000 </r>
       <r>   -2.6480    0.0000 </r>
       <r>   -2.6444    0.0000 </r>
       <r>    0.4355    0.0000 </r>
       <r>    0.4391    0.0000 </r>
       <r>    1.1127    0.0000 </r>
       <r>    1.1163    0.0000 </r>
       <r>    1.8803    0.0000 </r>
       <r>    1.8832    0.0000 </r>
       <r>    2.4338    0.0000 </r>
       <r>    3.1008    0.0000 </r>
      </set>
      <set comment="kpoint 13">
       <r>  -42.0971    1.0000 </r>
       <r>  -42.0971    1.0000 </r>
       <r>  -39.7157    1.0000 </r>
       <r>  -39.7157    1.0000 </r>
       <r>  -39.6139    1.0000 </r>
       <r>  -39.6138    1.0000 </r>
       <r>  -19.3294    1.0000 </r>
       <r>  -19.3291    1.0000 </r>
       <r>  -18.1033    1.0000 </r>
       <r>  -18.1029    1.0000 </r>
       <r>  -10.8458    1.0000 </r>
       <r>  -10.8456    1.0000 </r>
       <r>   -8.3317    1.0000 </r>
       <r>   -8.3316    1.0000 </r>
       <r>   -8.0091    1.0000 </r>
       <r>   -8.0089    1.0000 </r>
       <r>   -7.6707    1.0000 </r>
       <r>   -7.6702    1.0000 </r>
       <r>   -7.1856    1.0000 </r>
       <r>   -7.1852    1.0000 </r>
       <r>   -6.6361    1.0000 </r>
       <r>   -6.6352    1.0000 </r>
       <r>   -5.4596    1.0000 </r>
       <r>   -5.4589    1.0000 </r>
       <r>   -2.9724    0.0000 </r>
       <r>   -2.9687    0.0000 </r>
       <r>   -2.8386    0.0000 </r>
       <r>   -2.8345    0.0000 </r>
       <r>   -2.7153    0.0000 </r>
       <r>   -2.7121    0.0000 </r>
       <r>   -2.6480    0.0000 </r>
       <r>   -2.6444    0.0000 </r>
       <r>    0.4355    0.0000 </r>
       <r>    0.4391    0.0000 </r>
       <r>    1.1127    0.0000 </r>
       <r>    1.1164    0.0000 </r>
       <r>    1.8802    0.0000 </r>
       <r>    1.8922    0.0000 </r>
       <r>    2.4339    0.0000 </r>
       <r>    3.3547    0.0000 </r>
      </set>
      <set comment="kpoint 14">
       <r>  -42.1088    1.0000 </r>
       <r>  -42.1078    1.0000 </r>
       <r>  -39.7223    1.0000 </r>
       <r>  -39.7216    1.0000 </r>
       <r>  -39.6395    1.0000 </r>
       <r>  -39.6374    1.0000 </r>
       <r>  -19.1449    1.0000 </r>
       <r>  -19.1428    1.0000 </r>
       <r>  -18.0275    1.0000 </r>
       <r>  -18.0268    1.0000 </r>
       <r>  -10.6473    1.0000 </r>
       <r>  -10.6450    1.0000 </r>
       <r>   -8.6887    1.0000 </r>
       <r>   -8.6775    1.0000 </r>
       <r>   -8.0916    1.0000 </r>
       <r>   -8.0909    1.0000 </r>
       <r>   -7.8368    1.0000 </r>
       <r>   -7.8117    1.0000 </r>
       <r>   -7.5420    1.0000 </r>
       <r>   -7.5392    1.0000 </r>
       <r>   -6.4610    1.0000 </r>
       <r>   -6.4388    1.0000 </r>
       <r>   -5.6269    1.0000 </r>
       <r>   -5.6209    1.0000 </r>
       <r>   -3.1449    0.0000 </r>
       <r>   -3.1370    0.0000 </r>
       <r>   -3.1086    0.0000 </r>
       <r>   -3.0588    0.0000 </r>
       <r>   -2.9016    0.0000 </r>
       <r>   -2.8793    0.0000 </r>
       <r>   -2.3660    0.0000 </r>
       <r>   -2.3176    0.0000 </r>
       <r>    0.7406    0.0000 </r>
       <r>    0.7442    0.0000 </r>
       <r>    1.7634    0.0000 </r>
       <r>    1.7690    0.0000 </r>
       <r>    2.1631    0.0000 </r>
       <r>    2.2178    0.0000 </r>
       <r>    2.7049    0.0000 </r>
       <r>    2.8638    0.0000 </r>
      </set>
      <set comment="kpoint 15">
       <r>  -42.1295    1.0000 </r>
       <r>  -42.1267    1.0000 </r>
       <r>  -39.7418    1.0000 </r>
       <r>  -39.7417    1.0000 </r>
       <r>  -39.6731    1.0000 </r>
       <r>  -39.6690    1.0000 </r>
       <r>  -18.8071    1.0000 </r>
       <r>  -18.8010    1.0000 </r>
       <r>  -17.8887    1.0000 </r>
       <r>  -17.8876    1.0000 </r>
       <r>  -10.3758    1.0000 </r>
       <r>  -10.3671    1.0000 </r>
       <r>   -9.1423    1.0000 </r>
       <r>   -9.1381    1.0000 </r>
       <r>   -8.6268    1.0000 </r>
       <r>   -8.6148    1.0000 </r>
       <r>   -8.0529    1.0000 </r>
       <r>   -8.0445    1.0000 </r>
       <r>   -7.5460    1.0000 </r>
       <r>   -7.5110    1.0000 </r>
       <r>   -6.4908    1.0000 </r>
       <r>   -6.4650    1.0000 </r>
       <r>   -5.9968    1.0000 </r>
       <r>   -5.9719    1.0000 </r>
       <r>   -3.4150    0.0000 </r>
       <r>   -3.3743    0.0000 </r>
       <r>   -3.1207    0.0000 </r>
       <r>   -3.1008    0.0000 </r>
       <r>   -3.0268    0.0000 </r>
       <r>   -2.9643    0.0000 </r>
       <r>   -1.9149    0.0000 </r>
       <r>   -1.8687    0.0000 </r>
       <r>    1.2303    0.0000 </r>
       <r>    1.2339    0.0000 </r>
       <r>    2.4840    0.0000 </r>
       <r>    2.4932    0.0000 </r>
       <r>    2.7211    0.0000 </r>
       <r>    2.8143    0.0000 </r>
       <r>    3.3027    0.0000 </r>
       <r>    3.9713    0.0000 </r>
      </set>
      <set comment="kpoint 16">
       <r>  -42.1541    1.0000 </r>
       <r>  -42.1493    1.0000 </r>
       <r>  -39.7843    1.0000 </r>
       <r>  -39.7802    1.0000 </r>
       <r>  -39.6905    1.0000 </r>
       <r>  -39.6877    1.0000 </r>
       <r>  -18.3802    1.0000 </r>
       <r>  -18.3686    1.0000 </r>
       <r>  -17.7143    1.0000 </r>
       <r>  -17.7127    1.0000 </r>
       <r>  -10.3955    1.0000 </r>
       <r>  -10.3838    1.0000 </r>
       <r>   -9.3250    1.0000 </r>
       <r>   -9.3154    1.0000 </r>
       <r>   -9.2577    1.0000 </r>
       <r>   -9.2445    1.0000 </r>
       <r>   -8.3896    1.0000 </r>
       <r>   -8.3780    1.0000 </r>
       <r>   -7.3010    1.0000 </r>
       <r>   -7.2444    1.0000 </r>
       <r>   -6.7634    1.0000 </r>
       <r>   -6.7433    1.0000 </r>
       <r>   -6.3291    1.0000 </r>
       <r>   -6.2695    1.0000 </r>
       <r>   -3.5146    0.0000 </r>
       <r>   -3.4422    0.0000 </r>
       <r>   -3.1789    0.0000 </r>
       <r>   -3.1422    0.0000 </r>
       <r>   -2.6328    0.0000 </r>
       <r>   -2.5844    0.0000 </r>
       <r>   -1.5480    0.0000 </r>
       <r>   -1.5110    0.0000 </r>
       <r>    1.8342    0.0000 </r>
       <r>    1.8413    0.0000 </r>
       <r>    2.8132    0.0000 </r>
       <r>    2.8182    0.0000 </r>
       <r>    3.0087    0.0000 </r>
       <r>    3.0141    0.0000 </r>
       <r>    3.3669    0.0000 </r>
       <r>    3.4381    0.0000 </r>
      </set>
      <set comment="kpoint 17">
       <r>  -42.1761    1.0000 </r>
       <r>  -42.1695    1.0000 </r>
       <r>  -39.8291    1.0000 </r>
       <r>  -39.8208    1.0000 </r>
       <r>  -39.6961    1.0000 </r>
       <r>  -39.6950    1.0000 </r>
       <r>  -17.9670    1.0000 </r>
       <r>  -17.9493    1.0000 </r>
       <r>  -17.5481    1.0000 </r>
       <r>  -17.5461    1.0000 </r>
       <r>  -10.7160    1.0000 </r>
       <r>  -10.7156    1.0000 </r>
       <r>   -9.8264    1.0000 </r>
       <r>   -9.8187    1.0000 </r>
       <r>   -9.3228    1.0000 </r>
       <r>   -9.3221    1.0000 </r>
       <r>   -8.5522    1.0000 </r>
       <r>   -8.5417    1.0000 </r>
       <r>   -7.1762    1.0000 </r>
       <r>   -7.1105    1.0000 </r>
       <r>   -7.0540    1.0000 </r>
       <r>   -7.0392    1.0000 </r>
       <r>   -6.2725    1.0000 </r>
       <r>   -6.1872    1.0000 </r>
       <r>   -3.4274    0.0000 </r>
       <r>   -3.3960    0.0000 </r>
       <r>   -3.0890    0.0000 </r>
       <r>   -3.0750    0.0000 </r>
       <r>   -2.1462    0.0000 </r>
       <r>   -2.1106    0.0000 </r>
       <r>   -1.3780    0.0000 </r>
       <r>   -1.3526    0.0000 </r>
       <r>    1.7203    0.0000 </r>
       <r>    1.7268    0.0000 </r>
       <r>    2.5240    0.0000 </r>
       <r>    2.5323    0.0000 </r>
       <r>    2.8967    0.0000 </r>
       <r>    2.9058    0.0000 </r>
       <r>    3.5668    0.0000 </r>
       <r>    3.6017    0.0000 </r>
      </set>
      <set comment="kpoint 18">
       <r>  -42.1891    1.0000 </r>
       <r>  -42.1815    1.0000 </r>
       <r>  -39.8558    1.0000 </r>
       <r>  -39.8452    1.0000 </r>
       <r>  -39.6979    1.0000 </r>
       <r>  -39.6975    1.0000 </r>
       <r>  -17.7031    1.0000 </r>
       <r>  -17.6812    1.0000 </r>
       <r>  -17.4441    1.0000 </r>
       <r>  -17.4424    1.0000 </r>
       <r>  -10.9659    1.0000 </r>
       <r>  -10.9546    1.0000 </r>
       <r>  -10.1521    1.0000 </r>
       <r>  -10.1466    1.0000 </r>
       <r>   -9.4213    1.0000 </r>
       <r>   -9.4144    1.0000 </r>
       <r>   -8.6124    1.0000 </r>
       <r>   -8.6023    1.0000 </r>
       <r>   -7.2561    1.0000 </r>
       <r>   -7.2509    1.0000 </r>
       <r>   -7.0332    1.0000 </r>
       <r>   -6.9698    1.0000 </r>
       <r>   -6.0482    1.0000 </r>
       <r>   -5.9530    1.0000 </r>
       <r>   -3.4136    0.0000 </r>
       <r>   -3.3711    0.0000 </r>
       <r>   -2.9477    0.0000 </r>
       <r>   -2.8516    0.0000 </r>
       <r>   -1.7555    0.0000 </r>
       <r>   -1.7245    0.0000 </r>
       <r>   -1.4346    0.0000 </r>
       <r>   -1.4139    0.0000 </r>
       <r>    0.8822    0.0000 </r>
       <r>    0.8989    0.0000 </r>
       <r>    2.8582    0.0000 </r>
       <r>    2.8753    0.0000 </r>
       <r>    3.0182    0.0000 </r>
       <r>    3.0369    0.0000 </r>
       <r>    3.7277    0.0000 </r>
       <r>    4.5951    0.0000 </r>
      </set>
      <set comment="kpoint 19">
       <r>  -42.1891    1.0000 </r>
       <r>  -42.1815    1.0000 </r>
       <r>  -39.8558    1.0000 </r>
       <r>  -39.8452    1.0000 </r>
       <r>  -39.6979    1.0000 </r>
       <r>  -39.6975    1.0000 </r>
       <r>  -17.7031    1.0000 </r>
       <r>  -17.6812    1.0000 </r>
       <r>  -17.4441    1.0000 </r>
       <r>  -17.4424    1.0000 </r>
       <r>  -10.9659    1.0000 </r>
       <r>  -10.9546    1.0000 </r>
       <r>  -10.1521    1.0000 </r>
       <r>  -10.1466    1.0000 </r>
       <r>   -9.4213    1.0000 </r>
       <r>   -9.4144    1.0000 </r>
       <r>   -8.6124    1.0000 </r>
       <r>   -8.6023    1.0000 </r>
       <r>   -7.2561    1.0000 </r>
       <r>   -7.2509    1.0000 </r>
       <r>   -7.0332    1.0000 </r>
       <r>   -6.9698    1.0000 </r>
       <r>   -6.0482    1.0000 </r>
       <r>   -5.9530    1.0000 </r>
       <r>   -3.4136    0.0000 </r>
       <r>   -3.3711    0.0000 </r>
       <r>   -2.9477    0.0000 </r>
       <r>   -2.8516    0.0000 </r>
       <r>   -1.7555    0.0000 </r>
       <r>   -1.7245    0.0000 </r>
       <r>   -1.4347    0.0000 </r>
       <r>   -1.4139    0.0000 </r>
       <r>    0.8822    0.0000 </r>
       <r>    0.8989    0.0000 </r>
       <r>    2.8582    0.0000 </r>
       <r>    2.8753    0.0000 </r>
       <r>    3.0182    0.0000 </r>
       <r>    3.0369    0.0000 </r>
       <r>    3.7156    0.0000 </r>
       <r>    4.0290    0.0000 </r>
      </set>
      <set comment="kpoint 20">
       <r>  -42.1761    1.0000 </r>
       <r>  -42.1695    1.0000 </r>
       <r>  -39.8291    1.0000 </r>
       <r>  -39.8208    1.0000 </r>
       <r>  -39.6961    1.0000 </r>
       <r>  -39.6950    1.0000 </r>
       <r>  -17.9670    1.0000 </r>
       <r>  -17.9493    1.0000 </r>
       <r>  -17.5481    1.0000 </r>
       <r>  -17.5461    1.0000 </r>
       <r>  -10.7160    1.0000 </r>
       <r>  -10.7156    1.0000 </r>
       <r>   -9.8264    1.0000 </r>
       <r>   -9.8187    1.0000 </r>
       <r>   -9.3229    1.0000 </r>
       <r>   -9.3220    1.0000 </r>
       <r>   -8.5522    1.0000 </r>
       <r>   -8.5417    1.0000 </r>
       <r>   -7.1762    1.0000 </r>
       <r>   -7.1105    1.0000 </r>
       <r>   -7.0540    1.0000 </r>
       <r>   -7.0392    1.0000 </r>
       <r>   -6.2725    1.0000 </r>
       <r>   -6.1872    1.0000 </r>
       <r>   -3.4274    0.0000 </r>
       <r>   -3.3960    0.0000 </r>
       <r>   -3.0890    0.0000 </r>
       <r>   -3.0750    0.0000 </r>
       <r>   -2.1462    0.0000 </r>
       <r>   -2.1106    0.0000 </r>
       <r>   -1.3780    0.0000 </r>
       <r>   -1.3526    0.0000 </r>
       <r>    1.7203    0.0000 </r>
       <r>    1.7268    0.0000 </r>
       <r>    2.5241    0.0000 </r>
       <r>    2.5322    0.0000 </r>
       <r>    2.8967    0.0000 </r>
       <r>    2.9058    0.0000 </r>
       <r>    3.5583    0.0000 </r>
       <r>    3.5836    0.0000 </r>
      </set>
      <set comment="kpoint 21">
       <r>  -42.1541    1.0000 </r>
       <r>  -42.1493    1.0000 </r>
       <r>  -39.7843    1.0000 </r>
       <r>  -39.7802    1.0000 </r>
       <r>  -39.6905    1.0000 </r>
       <r>  -39.6877    1.0000 </r>
       <r>  -18.3802    1.0000 </r>
       <r>  -18.3686    1.0000 </r>
       <r>  -17.7142    1.0000 </r>
       <r>  -17.7127    1.0000 </r>
       <r>  -10.3955    1.0000 </r>
       <r>  -10.3838    1.0000 </r>
       <r>   -9.3250    1.0000 </r>
       <r>   -9.3154    1.0000 </r>
       <r>   -9.2577    1.0000 </r>
       <r>   -9.2445    1.0000 </r>
       <r>   -8.3895    1.0000 </r>
       <r>   -8.3780    1.0000 </r>
       <r>   -7.3010    1.0000 </r>
       <r>   -7.2444    1.0000 </r>
       <r>   -6.7634    1.0000 </r>
       <r>   -6.7433    1.0000 </r>
       <r>   -6.3291    1.0000 </r>
       <r>   -6.2695    1.0000 </r>
       <r>   -3.5146    0.0000 </r>
       <r>   -3.4422    0.0000 </r>
       <r>   -3.1789    0.0000 </r>
       <r>   -3.1422    0.0000 </r>
       <r>   -2.6328    0.0000 </r>
       <r>   -2.5844    0.0000 </r>
       <r>   -1.5480    0.0000 </r>
       <r>   -1.5111    0.0000 </r>
       <r>    1.8342    0.0000 </r>
       <r>    1.8413    0.0000 </r>
       <r>    2.8132    0.0000 </r>
       <r>    2.8182    0.0000 </r>
       <r>    3.0087    0.0000 </r>
       <r>    3.0141    0.0000 </r>
       <r>    3.3794    0.0000 </r>
       <r>    3.4387    0.0000 </r>
      </set>
      <set comment="kpoint 22">
       <r>  -42.1295    1.0000 </r>
       <r>  -42.1267    1.0000 </r>
       <r>  -39.7419    1.0000 </r>
       <r>  -39.7417    1.0000 </r>
       <r>  -39.6731    1.0000 </r>
       <r>  -39.6690    1.0000 </r>
       <r>  -18.8071    1.0000 </r>
       <r>  -18.8010    1.0000 </r>
       <r>  -17.8886    1.0000 </r>
       <r>  -17.8876    1.0000 </r>
       <r>  -10.3758    1.0000 </r>
       <r>  -10.3671    1.0000 </r>
       <r>   -9.1423    1.0000 </r>
       <r>   -9.1381    1.0000 </r>
       <r>   -8.6268    1.0000 </r>
       <r>   -8.6148    1.0000 </r>
       <r>   -8.0529    1.0000 </r>
       <r>   -8.0445    1.0000 </r>
       <r>   -7.5460    1.0000 </r>
       <r>   -7.5110    1.0000 </r>
       <r>   -6.4908    1.0000 </r>
       <r>   -6.4650    1.0000 </r>
       <r>   -5.9968    1.0000 </r>
       <r>   -5.9719    1.0000 </r>
       <r>   -3.4150    0.0000 </r>
       <r>   -3.3743    0.0000 </r>
       <r>   -3.1207    0.0000 </r>
       <r>   -3.1008    0.0000 </r>
       <r>   -3.0268    0.0000 </r>
       <r>   -2.9643    0.0000 </r>
       <r>   -1.9149    0.0000 </r>
       <r>   -1.8687    0.0000 </r>
       <r>    1.2302    0.0000 </r>
       <r>    1.2340    0.0000 </r>
       <r>    2.4844    0.0000 </r>
       <r>    2.5004    0.0000 </r>
       <r>    2.7210    0.0000 </r>
       <r>    2.7720    0.0000 </r>
       <r>    3.3019    0.0000 </r>
       <r>    4.0394    0.0000 </r>
      </set>
      <set comment="kpoint 23">
       <r>  -42.1088    1.0000 </r>
       <r>  -42.1078    1.0000 </r>
       <r>  -39.7223    1.0000 </r>
       <r>  -39.7216    1.0000 </r>
       <r>  -39.6395    1.0000 </r>
       <r>  -39.6374    1.0000 </r>
       <r>  -19.1449    1.0000 </r>
       <r>  -19.1428    1.0000 </r>
       <r>  -18.0275    1.0000 </r>
       <r>  -18.0269    1.0000 </r>
       <r>  -10.6473    1.0000 </r>
       <r>  -10.6450    1.0000 </r>
       <r>   -8.6887    1.0000 </r>
       <r>   -8.6775    1.0000 </r>
       <r>   -8.0916    1.0000 </r>
       <r>   -8.0909    1.0000 </r>
       <r>   -7.8368    1.0000 </r>
       <r>   -7.8117    1.0000 </r>
       <r>   -7.5420    1.0000 </r>
       <r>   -7.5392    1.0000 </r>
       <r>   -6.4610    1.0000 </r>
       <r>   -6.4388    1.0000 </r>
       <r>   -5.6269    1.0000 </r>
       <r>   -5.6209    1.0000 </r>
       <r>   -3.1449    0.0000 </r>
       <r>   -3.1370    0.0000 </r>
       <r>   -3.1086    0.0000 </r>
       <r>   -3.0588    0.0000 </r>
       <r>   -2.9016    0.0000 </r>
       <r>   -2.8793    0.0000 </r>
       <r>   -2.3660    0.0000 </r>
       <r>   -2.3176    0.0000 </r>
       <r>    0.7405    0.0000 </r>
       <r>    0.7443    0.0000 </r>
       <r>    1.7634    0.0000 </r>
       <r>    1.7690    0.0000 </r>
       <r>    2.1629    0.0000 </r>
       <r>    2.1641    0.0000 </r>
       <r>    2.7057    0.0000 </r>
       <r>    3.0733    0.0000 </r>
      </set>
      <set comment="kpoint 24">
       <r>  -42.0971    1.0000 </r>
       <r>  -42.0971    1.0000 </r>
       <r>  -39.7158    1.0000 </r>
       <r>  -39.7157    1.0000 </r>
       <r>  -39.6139    1.0000 </r>
       <r>  -39.6138    1.0000 </r>
       <r>  -19.3294    1.0000 </r>
       <r>  -19.3290    1.0000 </r>
       <r>  -18.1033    1.0000 </r>
       <r>  -18.1029    1.0000 </r>
       <r>  -10.8458    1.0000 </r>
[...]
       <r>    -7.2601     0.0000     0.0000 </r>
       <r>    -7.0848     0.0000     0.0000 </r>
       <r>    -6.9095     0.0000     0.0000 </r>
       <r>    -6.7343     0.0000     0.0000 </r>
       <r>    -6.5590     0.0000     0.0000 </r>
       <r>    -6.3837     0.0000     0.0000 </r>
       <r>    -6.2084     0.0000     0.0000 </r>
       <r>    -6.0331     0.0000     0.0000 </r>
       <r>    -5.8579     0.0000     0.0000 </r>
       <r>    -5.6826     0.0000     0.0000 </r>
       <r>    -5.5073     0.0000     0.0000 </r>
       <r>    -5.3320     0.0000     0.0000 </r>
       <r>    -5.1567     0.0000     0.0000 </r>
       <r>    -4.9815     0.0000     0.0000 </r>
       <r>    -4.8062     0.0000     0.0000 </r>
       <r>    -4.6309     0.0000     0.0000 </r>
       <r>    -4.4556     0.0000     0.0000 </r>
       <r>    -4.2803     0.0000     0.0000 </r>
       <r>    -4.1050     0.0000     0.0000 </r>
       <r>    -3.9298     0.0000     0.0000 </r>
       <r>    -3.7545     0.0000     0.0000 </r>
       <r>    -3.5792     0.0000     0.0000 </r>
       <r>    -3.4039     0.0000     0.0000 </r>
       <r>    -3.2286     0.0000     0.0000 </r>
       <r>    -3.0534     0.0000     0.0000 </r>
       <r>    -2.8781     0.0000     0.0000 </r>
       <r>    -2.7028     0.0000     0.0000 </r>
       <r>    -2.5275     0.0000     0.0000 </r>
       <r>    -2.3522     0.0000     0.0000 </r>
       <r>    -2.1770     0.0000     0.0000 </r>
       <r>    -2.0017     0.0000     0.0000 </r>
       <r>    -1.8264     0.0000     0.0000 </r>
       <r>    -1.6511     0.0000     0.0000 </r>
       <r>    -1.4758     0.0000     0.0000 </r>
       <r>    -1.3006     0.0000     0.0000 </r>
       <r>    -1.1253     0.0000     0.0000 </r>
       <r>    -0.9500     0.0000     0.0000 </r>
       <r>    -0.7747     0.0000     0.0000 </r>
       <r>    -0.5994     0.0000     0.0000 </r>
       <r>    -0.4242     0.0000     0.0000 </r>
       <r>    -0.2489     0.0000     0.0000 </r>
       <r>    -0.0736     0.0000     0.0000 </r>
       <r>     0.1017     0.0000     0.0000 </r>
       <r>     0.2770     0.0000     0.0000 </r>
       <r>     0.4522     0.0000     0.0000 </r>
       <r>     0.6275     0.0000     0.0000 </r>
       <r>     0.8028     0.0000     0.0000 </r>
       <r>     0.9781     0.0000     0.0000 </r>
       <r>     1.1534     0.0000     0.0000 </r>
       <r>     1.3286     0.0000     0.0000 </r>
       <r>     1.5039     0.0000     0.0000 </r>
       <r>     1.6792     0.0000     0.0000 </r>
       <r>     1.8545     0.0000     0.0000 </r>
       <r>     2.0298     0.0000     0.0000 </r>
       <r>     2.2050     0.0000     0.0000 </r>
       <r>     2.3803     0.0000     0.0000 </r>
       <r>     2.5556     0.0000     0.0000 </r>
       <r>     2.7309     0.0000     0.0000 </r>
       <r>     2.9062     0.0000     0.0000 </r>
       <r>     3.0814     0.0000     0.0000 </r>
       <r>     3.2567     0.0000     0.0000 </r>
       <r>     3.4320     0.0000     0.0000 </r>
       <r>     3.6073     0.0000     0.0000 </r>
       <r>     3.7826     0.0000     0.0000 </r>
       <r>     3.9578     0.0000     0.0000 </r>
       <r>     4.1331     0.0000     0.0000 </r>
       <r>     4.3084     0.0000     0.0000 </r>
       <r>     4.4837     0.0000     0.0000 </r>
       <r>     4.6590     0.0000     0.0000 </r>
       <r>     4.8342     0.0000     0.0000 </r>
       <r>     5.0095     0.0000     0.0000 </r>
       <r>     5.1848     0.0000     0.0000 </r>
       <r>     5.3601     0.0000     0.0000 </r>
       <r>     5.5354     0.0000     0.0000 </r>
       <r>     5.7106     0.0000     0.0000 </r>
       <r>     5.8859     0.0000     0.0000 </r>
       <r>     6.0612     0.0000     0.0000 </r>
       <r>     6.2365     0.0000     0.0000 </r>
       <r>     6.4118     0.0000     0.0000 </r>
       <r>     6.5870     0.0000     0.0000 </r>
       <r>     6.7623     0.0000     0.0000 </r>
       <r>     6.9376     0.0000     0.0000 </r>
       <r>     7.1129     0.0000     0.0000 </r>
       <r>     7.2882     0.0000     0.0000 </r>
       <r>     7.4634     0.0000     0.0000 </r>
       <r>     7.6387     0.0000     0.0000 </r>
       <r>     7.8140     0.0000     0.0000 </r>
       <r>     7.9893     0.0000     0.0000 </r>
      </set>
      <set comment="spin 4">
       <r>   -44.5948     0.0000     0.0000 </r>
       <r>   -44.4195     0.0000     0.0000 </r>
       <r>   -44.2442     0.0000     0.0000 </r>
       <r>   -44.0689     0.0000     0.0000 </r>
       <r>   -43.8937     0.0000     0.0000 </r>
       <r>   -43.7184     0.0000     0.0000 </r>
       <r>   -43.5431     0.0000     0.0000 </r>
       <r>   -43.3678     0.0000     0.0000 </r>
       <r>   -43.1925     0.0000     0.0000 </r>
       <r>   -43.0173     0.0000     0.0000 </r>
       <r>   -42.8420     0.0000     0.0000 </r>
       <r>   -42.6667     0.0000     0.0000 </r>
       <r>   -42.4914     0.0000     0.0000 </r>
       <r>   -42.3161     0.0000     0.0000 </r>
       <r>   -42.1409     0.0000     0.0000 </r>
       <r>   -41.9656     0.0000     0.0000 </r>
       <r>   -41.7903     0.0000     0.0000 </r>
       <r>   -41.6150     0.0000     0.0000 </r>
       <r>   -41.4397     0.0000     0.0000 </r>
       <r>   -41.2645     0.0000     0.0000 </r>
       <r>   -41.0892     0.0000     0.0000 </r>
       <r>   -40.9139     0.0000     0.0000 </r>
       <r>   -40.7386     0.0000     0.0000 </r>
       <r>   -40.5633     0.0000     0.0000 </r>
       <r>   -40.3881     0.0000     0.0000 </r>
       <r>   -40.2128     0.0000     0.0000 </r>
       <r>   -40.0375     0.0000     0.0000 </r>
       <r>   -39.8622     0.0000     0.0000 </r>
       <r>   -39.6869     0.0000     0.0000 </r>
       <r>   -39.5117     0.0000     0.0000 </r>
       <r>   -39.3364     0.0000     0.0000 </r>
       <r>   -39.1611     0.0000     0.0000 </r>
       <r>   -38.9858     0.0000     0.0000 </r>
       <r>   -38.8105     0.0000     0.0000 </r>
       <r>   -38.6352     0.0000     0.0000 </r>
       <r>   -38.4600     0.0000     0.0000 </r>
       <r>   -38.2847     0.0000     0.0000 </r>
       <r>   -38.1094     0.0000     0.0000 </r>
       <r>   -37.9341     0.0000     0.0000 </r>
       <r>   -37.7588     0.0000     0.0000 </r>
       <r>   -37.5836     0.0000     0.0000 </r>
       <r>   -37.4083     0.0000     0.0000 </r>
       <r>   -37.2330     0.0000     0.0000 </r>
       <r>   -37.0577     0.0000     0.0000 </r>
       <r>   -36.8824     0.0000     0.0000 </r>
       <r>   -36.7072     0.0000     0.0000 </r>
       <r>   -36.5319     0.0000     0.0000 </r>
       <r>   -36.3566     0.0000     0.0000 </r>
       <r>   -36.1813     0.0000     0.0000 </r>
       <r>   -36.0060     0.0000     0.0000 </r>
       <r>   -35.8308     0.0000     0.0000 </r>
       <r>   -35.6555     0.0000     0.0000 </r>
       <r>   -35.4802     0.0000     0.0000 </r>
       <r>   -35.3049     0.0000     0.0000 </r>
       <r>   -35.1296     0.0000     0.0000 </r>
       <r>   -34.9544     0.0000     0.0000 </r>
       <r>   -34.7791     0.0000     0.0000 </r>
       <r>   -34.6038     0.0000     0.0000 </r>
       <r>   -34.4285     0.0000     0.0000 </r>
       <r>   -34.2532     0.0000     0.0000 </r>
       <r>   -34.0780     0.0000     0.0000 </r>
       <r>   -33.9027     0.0000     0.0000 </r>
       <r>   -33.7274     0.0000     0.0000 </r>
       <r>   -33.5521     0.0000     0.0000 </r>
       <r>   -33.3768     0.0000     0.0000 </r>
       <r>   -33.2016     0.0000     0.0000 </r>
       <r>   -33.0263     0.0000     0.0000 </r>
       <r>   -32.8510     0.0000     0.0000 </r>
       <r>   -32.6757     0.0000     0.0000 </r>
       <r>   -32.5004     0.0000     0.0000 </r>
       <r>   -32.3252     0.0000     0.0000 </r>
       <r>   -32.1499     0.0000     0.0000 </r>
       <r>   -31.9746     0.0000     0.0000 </r>
       <r>   -31.7993     0.0000     0.0000 </r>
       <r>   -31.6240     0.0000     0.0000 </r>
       <r>   -31.4488     0.0000     0.0000 </r>
       <r>   -31.2735     0.0000     0.0000 </r>
       <r>   -31.0982     0.0000     0.0000 </r>
       <r>   -30.9229     0.0000     0.0000 </r>
       <r>   -30.7476     0.0000     0.0000 </r>
       <r>   -30.5724     0.0000     0.0000 </r>
       <r>   -30.3971     0.0000     0.0000 </r>
       <r>   -30.2218     0.0000     0.0000 </r>
       <r>   -30.0465     0.0000     0.0000 </r>
       <r>   -29.8712     0.0000     0.0000 </r>
       <r>   -29.6960     0.0000     0.0000 </r>
       <r>   -29.5207     0.0000     0.0000 </r>
       <r>   -29.3454     0.0000     0.0000 </r>
       <r>   -29.1701     0.0000     0.0000 </r>
       <r>   -28.9948     0.0000     0.0000 </r>
       <r>   -28.8196     0.0000     0.0000 </r>
       <r>   -28.6443     0.0000     0.0000 </r>
       <r>   -28.4690     0.0000     0.0000 </r>
       <r>   -28.2937     0.0000     0.0000 </r>
       <r>   -28.1184     0.0000     0.0000 </r>
       <r>   -27.9432     0.0000     0.0000 </r>
       <r>   -27.7679     0.0000     0.0000 </r>
       <r>   -27.5926     0.0000     0.0000 </r>
       <r>   -27.4173     0.0000     0.0000 </r>
       <r>   -27.2420     0.0000     0.0000 </r>
       <r>   -27.0668     0.0000     0.0000 </r>
       <r>   -26.8915     0.0000     0.0000 </r>
       <r>   -26.7162     0.0000     0.0000 </r>
       <r>   -26.5409     0.0000     0.0000 </r>
       <r>   -26.3656     0.0000     0.0000 </r>
       <r>   -26.1904     0.0000     0.0000 </r>
       <r>   -26.0151     0.0000     0.0000 </r>
       <r>   -25.8398     0.0000     0.0000 </r>
       <r>   -25.6645     0.0000     0.0000 </r>
       <r>   -25.4892     0.0000     0.0000 </r>
       <r>   -25.3140     0.0000     0.0000 </r>
       <r>   -25.1387     0.0000     0.0000 </r>
       <r>   -24.9634     0.0000     0.0000 </r>
       <r>   -24.7881     0.0000     0.0000 </r>
       <r>   -24.6128     0.0000     0.0000 </r>
       <r>   -24.4376     0.0000     0.0000 </r>
       <r>   -24.2623     0.0000     0.0000 </r>
       <r>   -24.0870     0.0000     0.0000 </r>
       <r>   -23.9117     0.0000     0.0000 </r>
       <r>   -23.7364     0.0000     0.0000 </r>
       <r>   -23.5612     0.0000     0.0000 </r>
       <r>   -23.3859     0.0000     0.0000 </r>
       <r>   -23.2106     0.0000     0.0000 </r>
       <r>   -23.0353     0.0000     0.0000 </r>
       <r>   -22.8600     0.0000     0.0000 </r>
       <r>   -22.6848     0.0000     0.0000 </r>
       <r>   -22.5095     0.0000     0.0000 </r>
       <r>   -22.3342     0.0000     0.0000 </r>
       <r>   -22.1589     0.0000     0.0000 </r>
       <r>   -21.9836     0.0000     0.0000 </r>
       <r>   -21.8084     0.0000     0.0000 </r>
       <r>   -21.6331     0.0000     0.0000 </r>
       <r>   -21.4578     0.0000     0.0000 </r>
       <r>   -21.2825     0.0000     0.0000 </r>
       <r>   -21.1072     0.0000     0.0000 </r>
       <r>   -20.9319     0.0000     0.0000 </r>
       <r>   -20.7567     0.0000     0.0000 </r>
       <r>   -20.5814     0.0000     0.0000 </r>
       <r>   -20.4061     0.0000     0.0000 </r>
       <r>   -20.2308     0.0000     0.0000 </r>
       <r>   -20.0555     0.0000     0.0000 </r>
       <r>   -19.8803     0.0000     0.0000 </r>
       <r>   -19.7050     0.0000     0.0000 </r>
       <r>   -19.5297     0.0000     0.0000 </r>
       <r>   -19.3544     0.0000     0.0000 </r>
       <r>   -19.1791     0.0000     0.0000 </r>
       <r>   -19.0039     0.0000     0.0000 </r>
       <r>   -18.8286     0.0000     0.0000 </r>
       <r>   -18.6533     0.0000     0.0000 </r>
       <r>   -18.4780     0.0000     0.0000 </r>
       <r>   -18.3027     0.0000     0.0000 </r>
       <r>   -18.1275     0.0000     0.0000 </r>
       <r>   -17.9522     0.0000     0.0000 </r>
       <r>   -17.7769     0.0000     0.0000 </r>
       <r>   -17.6016     0.0000     0.0000 </r>
       <r>   -17.4263     0.0000     0.0000 </r>
       <r>   -17.2511     0.0000     0.0000 </r>
       <r>   -17.0758     0.0000     0.0000 </r>
       <r>   -16.9005     0.0000     0.0000 </r>
       <r>   -16.7252     0.0000     0.0000 </r>
       <r>   -16.5499     0.0000     0.0000 </r>
       <r>   -16.3747     0.0000     0.0000 </r>
       <r>   -16.1994     0.0000     0.0000 </r>
       <r>   -16.0241     0.0000     0.0000 </r>
       <r>   -15.8488     0.0000     0.0000 </r>
       <r>   -15.6735     0.0000     0.0000 </r>
       <r>   -15.4983     0.0000     0.0000 </r>
       <r>   -15.3230     0.0000     0.0000 </r>
       <r>   -15.1477     0.0000     0.0000 </r>
       <r>   -14.9724     0.0000     0.0000 </r>
       <r>   -14.7971     0.0000     0.0000 </r>
       <r>   -14.6219     0.0000     0.0000 </r>
       <r>   -14.4466     0.0000     0.0000 </r>
       <r>   -14.2713     0.0000     0.0000 </r>
       <r>   -14.0960     0.0000     0.0000 </r>
       <r>   -13.9207     0.0000     0.0000 </r>
       <r>   -13.7455     0.0000     0.0000 </r>
       <r>   -13.5702     0.0000     0.0000 </r>
       <r>   -13.3949     0.0000     0.0000 </r>
       <r>   -13.2196     0.0000     0.0000 </r>
       <r>   -13.0443     0.0000     0.0000 </r>
       <r>   -12.8691     0.0000     0.0000 </r>
       <r>   -12.6938     0.0000     0.0000 </r>
       <r>   -12.5185     0.0000     0.0000 </r>
       <r>   -12.3432     0.0000     0.0000 </r>
       <r>   -12.1679     0.0000     0.0000 </r>
       <r>   -11.9927     0.0000     0.0000 </r>
       <r>   -11.8174     0.0000     0.0000 </r>
       <r>   -11.6421     0.0000     0.0000 </r>
       <r>   -11.4668     0.0000     0.0000 </r>
       <r>   -11.2915     0.0000     0.0000 </r>
       <r>   -11.1163     0.0000     0.0000 </r>
       <r>   -10.9410     0.0000     0.0000 </r>
       <r>   -10.7657     0.0000     0.0000 </r>
       <r>   -10.5904     0.0000     0.0000 </r>
       <r>   -10.4151     0.0000     0.0000 </r>
       <r>   -10.2399     0.0000     0.0000 </r>
       <r>   -10.0646     0.0000     0.0000 </r>
       <r>    -9.8893     0.0000     0.0000 </r>
       <r>    -9.7140     0.0000     0.0000 </r>
       <r>    -9.5387     0.0000     0.0000 </r>
       <r>    -9.3635     0.0000     0.0000 </r>
       <r>    -9.1882     0.0000     0.0000 </r>
       <r>    -9.0129     0.0000     0.0000 </r>
       <r>    -8.8376     0.0000     0.0000 </r>
       <r>    -8.6623     0.0000     0.0000 </r>
       <r>    -8.4871     0.0000     0.0000 </r>
       <r>    -8.3118     0.0000     0.0000 </r>
       <r>    -8.1365     0.0000     0.0000 </r>
       <r>    -7.9612     0.0000     0.0000 </r>
       <r>    -7.7859     0.0000     0.0000 </r>
       <r>    -7.6107     0.0000     0.0000 </r>
       <r>    -7.4354     0.0000     0.0000 </r>
       <r>    -7.2601     0.0000     0.0000 </r>
       <r>    -7.0848     0.0000     0.0000 </r>
       <r>    -6.9095     0.0000     0.0000 </r>
       <r>    -6.7343     0.0000     0.0000 </r>
       <r>    -6.5590     0.0000     0.0000 </r>
       <r>    -6.3837     0.0000     0.0000 </r>
       <r>    -6.2084     0.0000     0.0000 </r>
       <r>    -6.0331     0.0000     0.0000 </r>
       <r>    -5.8579     0.0000     0.0000 </r>
       <r>    -5.6826     0.0000     0.0000 </r>
       <r>    -5.5073     0.0000     0.0000 </r>
       <r>    -5.3320     0.0000     0.0000 </r>
       <r>    -5.1567     0.0000     0.0000 </r>
       <r>    -4.9815     0.0000     0.0000 </r>
       <r>    -4.8062     0.0000     0.0000 </r>
       <r>    -4.6309     0.0000     0.0000 </r>
       <r>    -4.4556     0.0000     0.0000 </r>
       <r>    -4.2803     0.0000     0.0000 </r>
       <r>    -4.1050     0.0000     0.0000 </r>
       <r>    -3.9298     0.0000     0.0000 </r>
       <r>    -3.7545     0.0000     0.0000 </r>
       <r>    -3.5792     0.0000     0.0000 </r>
       <r>    -3.4039     0.0000     0.0000 </r>
       <r>    -3.2286     0.0000     0.0000 </r>
       <r>    -3.0534     0.0000     0.0000 </r>
       <r>    -2.8781     0.0000     0.0000 </r>
       <r>    -2.7028     0.0000     0.0000 </r>
       <r>    -2.5275     0.0000     0.0000 </r>
       <r>    -2.3522     0.0000     0.0000 </r>
       <r>    -2.1770     0.0000     0.0000 </r>
       <r>    -2.0017     0.0000     0.0000 </r>
       <r>    -1.8264     0.0000     0.0000 </r>
       <r>    -1.6511     0.0000     0.0000 </r>
       <r>    -1.4758     0.0000     0.0000 </r>
       <r>    -1.3006     0.0000     0.0000 </r>
       <r>    -1.1253     0.0000     0.0000 </r>
       <r>    -0.9500     0.0000     0.0000 </r>
       <r>    -0.7747     0.0000     0.0000 </r>
       <r>    -0.5994     0.0000     0.0000 </r>
       <r>    -0.4242     0.0000     0.0000 </r>
       <r>    -0.2489     0.0000     0.0000 </r>
       <r>    -0.0736     0.0000     0.0000 </r>
       <r>     0.1017     0.0000     0.0000 </r>
       <r>     0.2770     0.0000     0.0000 </r>
       <r>     0.4522     0.0000     0.0000 </r>
       <r>     0.6275     0.0000     0.0000 </r>
       <r>     0.8028     0.0000     0.0000 </r>
       <r>     0.9781     0.0000     0.0000 </r>
       <r>     1.1534     0.0000     0.0000 </r>
       <r>     1.3286     0.0000     0.0000 </r>
       <r>     1.5039     0.0000     0.0000 </r>
       <r>     1.6792     0.0000     0.0000 </r>
       <r>     1.8545     0.0000     0.0000 </r>
       <r>     2.0298     0.0000     0.0000 </r>
       <r>     2.2050     0.0000     0.0000 </r>
       <r>     2.3803     0.0000     0.0000 </r>
       <r>     2.5556     0.0000     0.0000 </r>
       <r>     2.7309     0.0000     0.0000 </r>
       <r>     2.9062     0.0000     0.0000 </r>
       <r>     3.0814     0.0000     0.0000 </r>
       <r>     3.2567     0.0000     0.0000 </r>
       <r>     3.4320     0.0000     0.0000 </r>
       <r>     3.6073     0.0000     0.0000 </r>
       <r>     3.7826     0.0000     0.0000 </r>
       <r>     3.9578     0.0000     0.0000 </r>
       <r>     4.1331     0.0000     0.0000 </r>
       <r>     4.3084     0.0000     0.0000 </r>
       <r>     4.4837     0.0000     0.0000 </r>
       <r>     4.6590     0.0000     0.0000 </r>
       <r>     4.8342     0.0000     0.0000 </r>
       <r>     5.0095     0.0000     0.0000 </r>
       <r>     5.1848     0.0000     0.0000 </r>
       <r>     5.3601     0.0000     0.0000 </r>
       <r>     5.5354     0.0000     0.0000 </r>
       <r>     5.7106     0.0000     0.0000 </r>
       <r>     5.8859     0.0000     0.0000 </r>
       <r>     6.0612     0.0000     0.0000 </r>
       <r>     6.2365     0.0000     0.0000 </r>
       <r>     6.4118     0.0000     0.0000 </r>
       <r>     6.5870     0.0000     0.0000 </r>
       <r>     6.7623     0.0000     0.0000 </r>
       <r>     6.9376     0.0000     0.0000 </r>
       <r>     7.1129     0.0000     0.0000 </r>
       <r>     7.2882     0.0000     0.0000 </r>
       <r>     7.4634     0.0000     0.0000 </r>
       <r>     7.6387     0.0000     0.0000 </r>
       <r>     7.8140     0.0000     0.0000 </r>
       <r>     7.9893     0.0000     0.0000 </r>
      </set>
     </set>
    </array>
   </total>
  </dos>
 </calculation>
 <structure name="finalpos" >
  <crystal>
   <varray name="basis" >
    <v>       1.61415312      -2.79579451       0.00000000 </v>
    <v>       1.61415312       2.79579451       0.00000000 </v>
    <v>       0.00000000       0.00000000      34.96267827 </v>
   </varray>
   <i name="volume">    315.56197699 </i>
   <varray name="rec_basis" >
    <v>       0.30975996      -0.17884004       0.00000000 </v>
    <v>       0.30975996       0.17884004       0.00000000 </v>
    <v>       0.00000000       0.00000000       0.02860193 </v>
   </varray>
  </crystal>
  <varray name="positions" >
   <v>       0.66666700       0.33333300       0.10664700 </v>
   <v>       0.33333300       0.66666700       0.06198962 </v>
   <v>       0.33333300       0.66666700       0.15130538 </v>
  </varray>
 </structure>
</modeling>
