<?xml version="1.0" encoding="ISO-8859-1"?>
<modeling>
 <generator>
  <i name="program" type="string">vasp </i>
  <i name="version" type="string">5.4.1  </i>
  <i name="subversion" type="string">05Feb16 (build Feb 01 2017 11:31:40) complex                          parallel </i>
  <i name="platform" type="string">IFC91_ompi </i>
  <i name="date" type="string">2025 10 22 </i>
  <i name="time" type="string">14:57:14 </i>
 </generator>
 <incar>
  <i type="string" name="SYSTEM"> MoS2 band (SOC OFF)</i>
  <i type="int" name="ISTART">     1</i>
  <i type="string" name="PREC">accurate</i>
  <i type="string" name="ALGO"> Normal</i>
  <i type="logical" name="LSORBIT"> F  </i>
  <i type="logical" name="LNONCOLLINEAR"> F  </i>
  <i type="int" name="ISPIN">     2</i>
  <i type="int" name="ICHARG">    11</i>
  <i type="int" name="IBRION">    -1</i>
  <i name="EDIFF">      0.00000001</i>
  <i type="int" name="NSW">     0</i>
  <i type="int" name="ISIF">     2</i>
  <i name="ENCUT">    600.00000000</i>
  <i type="logical" name="LREAL"> F  </i>
  <i type="int" name="ISMEAR">     0</i>
  <i name="SIGMA">      0.05000000</i>
  <i type="logical" name="LWAVE"> F  </i>
  <i type="logical" name="LCHARG"> F  </i>
  <v type="int" name="KPOINT_BSE">    -1     0     0     0</v>
 </incar>
 <kpoints>
  <generation param="listgenerated">
   <i name="divisions" type="int">      80 </i>
   <v>       0.00000000       0.00000000       0.00000000 </v>
   <v>       0.33333300       0.33333300       0.00000000 </v>
   <v>       0.50000000       0.00000000       0.00000000 </v>
   <v>       0.00000000       0.00000000       0.00000000 </v>
  </generation>
  <varray name="kpointlist" >
   <v>       0.00000000       0.00000000       0.00000000 </v>
   <v>       0.00421941       0.00421941       0.00000000 </v>
   <v>       0.00843881       0.00843881       0.00000000 </v>
   <v>       0.01265822       0.01265822       0.00000000 </v>
   <v>       0.01687762       0.01687762       0.00000000 </v>
   <v>       0.02109703       0.02109703       0.00000000 </v>
   <v>       0.02531643       0.02531643       0.00000000 </v>
   <v>       0.02953584       0.02953584       0.00000000 </v>
   <v>       0.03375524       0.03375524       0.00000000 </v>
   <v>       0.03797465       0.03797465       0.00000000 </v>
   <v>       0.04219405       0.04219405       0.00000000 </v>
   <v>       0.04641346       0.04641346       0.00000000 </v>
   <v>       0.05063286       0.05063286       0.00000000 </v>
   <v>       0.05485227       0.05485227       0.00000000 </v>
   <v>       0.05907167       0.05907167       0.00000000 </v>
   <v>       0.06329108       0.06329108       0.00000000 </v>
   <v>       0.06751048       0.06751048       0.00000000 </v>
   <v>       0.07172989       0.07172989       0.00000000 </v>
   <v>       0.07594929       0.07594929       0.00000000 </v>
   <v>       0.08016870       0.08016870       0.00000000 </v>
   <v>       0.08438810       0.08438810       0.00000000 </v>
   <v>       0.08860751       0.08860751       0.00000000 </v>
   <v>       0.09282691       0.09282691       0.00000000 </v>
   <v>       0.09704632       0.09704632       0.00000000 </v>
   <v>       0.10126572       0.10126572       0.00000000 </v>
   <v>       0.10548513       0.10548513       0.00000000 </v>
   <v>       0.10970453       0.10970453       0.00000000 </v>
   <v>       0.11392394       0.11392394       0.00000000 </v>
   <v>       0.11814334       0.11814334       0.00000000 </v>
   <v>       0.12236275       0.12236275       0.00000000 </v>
   <v>       0.12658215       0.12658215       0.00000000 </v>
   <v>       0.13080156       0.13080156       0.00000000 </v>
   <v>       0.13502096       0.13502096       0.00000000 </v>
   <v>       0.13924037       0.13924037       0.00000000 </v>
   <v>       0.14345977       0.14345977       0.00000000 </v>
   <v>       0.14767918       0.14767918       0.00000000 </v>
   <v>       0.15189858       0.15189858       0.00000000 </v>
   <v>       0.15611799       0.15611799       0.00000000 </v>
   <v>       0.16033739       0.16033739       0.00000000 </v>
   <v>       0.16455680       0.16455680       0.00000000 </v>
   <v>       0.16877620       0.16877620       0.00000000 </v>
   <v>       0.17299561       0.17299561       0.00000000 </v>
   <v>       0.17721501       0.17721501       0.00000000 </v>
   <v>       0.18143442       0.18143442       0.00000000 </v>
   <v>       0.18565382       0.18565382       0.00000000 </v>
   <v>       0.18987323       0.18987323       0.00000000 </v>
   <v>       0.19409263       0.19409263       0.00000000 </v>
   <v>       0.19831204       0.19831204       0.00000000 </v>
   <v>       0.20253144       0.20253144       0.00000000 </v>
   <v>       0.20675085       0.20675085       0.00000000 </v>
   <v>       0.21097025       0.21097025       0.00000000 </v>
   <v>       0.21518966       0.21518966       0.00000000 </v>
   <v>       0.21940906       0.21940906       0.00000000 </v>
   <v>       0.22362847       0.22362847       0.00000000 </v>
   <v>       0.22784787       0.22784787       0.00000000 </v>
   <v>       0.23206728       0.23206728       0.00000000 </v>
   <v>       0.23628668       0.23628668       0.00000000 </v>
   <v>       0.24050609       0.24050609       0.00000000 </v>
   <v>       0.24472549       0.24472549       0.00000000 </v>
   <v>       0.24894490       0.24894490       0.00000000 </v>
   <v>       0.25316430       0.25316430       0.00000000 </v>
   <v>       0.25738371       0.25738371       0.00000000 </v>
   <v>       0.26160311       0.26160311       0.00000000 </v>
   <v>       0.26582252       0.26582252       0.00000000 </v>
   <v>       0.27004192       0.27004192       0.00000000 </v>
   <v>       0.27426133       0.27426133       0.00000000 </v>
   <v>       0.27848073       0.27848073       0.00000000 </v>
   <v>       0.28270014       0.28270014       0.00000000 </v>
   <v>       0.28691954       0.28691954       0.00000000 </v>
   <v>       0.29113895       0.29113895       0.00000000 </v>
   <v>       0.29535835       0.29535835       0.00000000 </v>
   <v>       0.29957776       0.29957776       0.00000000 </v>
   <v>       0.30379716       0.30379716       0.00000000 </v>
   <v>       0.30801657       0.30801657       0.00000000 </v>
   <v>       0.31223597       0.31223597       0.00000000 </v>
   <v>       0.31645538       0.31645538       0.00000000 </v>
   <v>       0.32067478       0.32067478       0.00000000 </v>
   <v>       0.32489419       0.32489419       0.00000000 </v>
   <v>       0.32911359       0.32911359       0.00000000 </v>
   <v>       0.33333300       0.33333300       0.00000000 </v>
   <v>       0.33333300       0.33333300       0.00000000 </v>
   <v>       0.33544271       0.32911359       0.00000000 </v>
   <v>       0.33755242       0.32489419       0.00000000 </v>
   <v>       0.33966213       0.32067478       0.00000000 </v>
   <v>       0.34177184       0.31645538       0.00000000 </v>
   <v>       0.34388154       0.31223597       0.00000000 </v>
   <v>       0.34599125       0.30801657       0.00000000 </v>
   <v>       0.34810096       0.30379716       0.00000000 </v>
   <v>       0.35021067       0.29957776       0.00000000 </v>
   <v>       0.35232038       0.29535835       0.00000000 </v>
   <v>       0.35443009       0.29113895       0.00000000 </v>
   <v>       0.35653980       0.28691954       0.00000000 </v>
   <v>       0.35864951       0.28270014       0.00000000 </v>
   <v>       0.36075922       0.27848073       0.00000000 </v>
   <v>       0.36286892       0.27426133       0.00000000 </v>
   <v>       0.36497863       0.27004192       0.00000000 </v>
   <v>       0.36708834       0.26582252       0.00000000 </v>
   <v>       0.36919805       0.26160311       0.00000000 </v>
   <v>       0.37130776       0.25738371       0.00000000 </v>
   <v>       0.37341747       0.25316430       0.00000000 </v>
   <v>       0.37552718       0.24894490       0.00000000 </v>
   <v>       0.37763689       0.24472549       0.00000000 </v>
   <v>       0.37974659       0.24050609       0.00000000 </v>
   <v>       0.38185630       0.23628668       0.00000000 </v>
   <v>       0.38396601       0.23206728       0.00000000 </v>
   <v>       0.38607572       0.22784787       0.00000000 </v>
   <v>       0.38818543       0.22362847       0.00000000 </v>
   <v>       0.39029514       0.21940906       0.00000000 </v>
   <v>       0.39240485       0.21518966       0.00000000 </v>
   <v>       0.39451456       0.21097025       0.00000000 </v>
   <v>       0.39662427       0.20675085       0.00000000 </v>
   <v>       0.39873397       0.20253144       0.00000000 </v>
   <v>       0.40084368       0.19831204       0.00000000 </v>
   <v>       0.40295339       0.19409263       0.00000000 </v>
   <v>       0.40506310       0.18987323       0.00000000 </v>
   <v>       0.40717281       0.18565382       0.00000000 </v>
   <v>       0.40928252       0.18143442       0.00000000 </v>
   <v>       0.41139223       0.17721501       0.00000000 </v>
   <v>       0.41350194       0.17299561       0.00000000 </v>
   <v>       0.41561165       0.16877620       0.00000000 </v>
   <v>       0.41772135       0.16455680       0.00000000 </v>
   <v>       0.41983106       0.16033739       0.00000000 </v>
   <v>       0.42194077       0.15611799       0.00000000 </v>
   <v>       0.42405048       0.15189858       0.00000000 </v>
   <v>       0.42616019       0.14767918       0.00000000 </v>
   <v>       0.42826990       0.14345977       0.00000000 </v>
   <v>       0.43037961       0.13924037       0.00000000 </v>
   <v>       0.43248932       0.13502096       0.00000000 </v>
   <v>       0.43459903       0.13080156       0.00000000 </v>
   <v>       0.43670873       0.12658215       0.00000000 </v>
   <v>       0.43881844       0.12236275       0.00000000 </v>
   <v>       0.44092815       0.11814334       0.00000000 </v>
   <v>       0.44303786       0.11392394       0.00000000 </v>
   <v>       0.44514757       0.10970453       0.00000000 </v>
   <v>       0.44725728       0.10548513       0.00000000 </v>
   <v>       0.44936699       0.10126572       0.00000000 </v>
   <v>       0.45147670       0.09704632       0.00000000 </v>
   <v>       0.45358641       0.09282691       0.00000000 </v>
   <v>       0.45569611       0.08860751       0.00000000 </v>
   <v>       0.45780582       0.08438810       0.00000000 </v>
   <v>       0.45991553       0.08016870       0.00000000 </v>
   <v>       0.46202524       0.07594929       0.00000000 </v>
   <v>       0.46413495       0.07172989       0.00000000 </v>
   <v>       0.46624466       0.06751048       0.00000000 </v>
   <v>       0.46835437       0.06329108       0.00000000 </v>
   <v>       0.47046408       0.05907167       0.00000000 </v>
   <v>       0.47257378       0.05485227       0.00000000 </v>
   <v>       0.47468349       0.05063286       0.00000000 </v>
   <v>       0.47679320       0.04641346       0.00000000 </v>
   <v>       0.47890291       0.04219405       0.00000000 </v>
   <v>       0.48101262       0.03797465       0.00000000 </v>
   <v>       0.48312233       0.03375524       0.00000000 </v>
   <v>       0.48523204       0.02953584       0.00000000 </v>
   <v>       0.48734175       0.02531643       0.00000000 </v>
   <v>       0.48945146       0.02109703       0.00000000 </v>
   <v>       0.49156116       0.01687762       0.00000000 </v>
   <v>       0.49367087       0.01265822       0.00000000 </v>
   <v>       0.49578058       0.00843881       0.00000000 </v>
   <v>       0.49789029       0.00421941       0.00000000 </v>
   <v>       0.50000000      -0.00000000       0.00000000 </v>
   <v>       0.50000000       0.00000000       0.00000000 </v>
   <v>       0.49367089       0.00000000       0.00000000 </v>
   <v>       0.48734177       0.00000000       0.00000000 </v>
   <v>       0.48101266       0.00000000       0.00000000 </v>
   <v>       0.47468354       0.00000000       0.00000000 </v>
   <v>       0.46835443       0.00000000       0.00000000 </v>
   <v>       0.46202532       0.00000000       0.00000000 </v>
   <v>       0.45569620       0.00000000       0.00000000 </v>
   <v>       0.44936709       0.00000000       0.00000000 </v>
   <v>       0.44303797       0.00000000       0.00000000 </v>
   <v>       0.43670886       0.00000000       0.00000000 </v>
   <v>       0.43037975       0.00000000       0.00000000 </v>
   <v>       0.42405063       0.00000000       0.00000000 </v>
   <v>       0.41772152       0.00000000       0.00000000 </v>
   <v>       0.41139241       0.00000000       0.00000000 </v>
   <v>       0.40506329       0.00000000       0.00000000 </v>
   <v>       0.39873418       0.00000000       0.00000000 </v>
   <v>       0.39240506       0.00000000       0.00000000 </v>
   <v>       0.38607595       0.00000000       0.00000000 </v>
   <v>       0.37974684       0.00000000       0.00000000 </v>
   <v>       0.37341772       0.00000000       0.00000000 </v>
   <v>       0.36708861       0.00000000       0.00000000 </v>
   <v>       0.36075949       0.00000000       0.00000000 </v>
   <v>       0.35443038       0.00000000       0.00000000 </v>
   <v>       0.34810127       0.00000000       0.00000000 </v>
   <v>       0.34177215       0.00000000       0.00000000 </v>
   <v>       0.33544304       0.00000000       0.00000000 </v>
   <v>       0.32911392       0.00000000       0.00000000 </v>
   <v>       0.32278481       0.00000000       0.00000000 </v>
   <v>       0.31645570       0.00000000       0.00000000 </v>
   <v>       0.31012658       0.00000000       0.00000000 </v>
   <v>       0.30379747       0.00000000       0.00000000 </v>
   <v>       0.29746835       0.00000000       0.00000000 </v>
   <v>       0.29113924       0.00000000       0.00000000 </v>
   <v>       0.28481013       0.00000000       0.00000000 </v>
   <v>       0.27848101       0.00000000       0.00000000 </v>
   <v>       0.27215190       0.00000000       0.00000000 </v>
   <v>       0.26582278       0.00000000       0.00000000 </v>
   <v>       0.25949367       0.00000000       0.00000000 </v>
   <v>       0.25316456       0.00000000       0.00000000 </v>
   <v>       0.24683544       0.00000000       0.00000000 </v>
   <v>       0.24050633       0.00000000       0.00000000 </v>
   <v>       0.23417722       0.00000000       0.00000000 </v>
   <v>       0.22784810       0.00000000       0.00000000 </v>
   <v>       0.22151899       0.00000000       0.00000000 </v>
   <v>       0.21518987       0.00000000       0.00000000 </v>
   <v>       0.20886076       0.00000000       0.00000000 </v>
   <v>       0.20253165       0.00000000       0.00000000 </v>
   <v>       0.19620253       0.00000000       0.00000000 </v>
   <v>       0.18987342       0.00000000       0.00000000 </v>
   <v>       0.18354430       0.00000000       0.00000000 </v>
   <v>       0.17721519       0.00000000       0.00000000 </v>
   <v>       0.17088608       0.00000000       0.00000000 </v>
   <v>       0.16455696       0.00000000       0.00000000 </v>
   <v>       0.15822785       0.00000000       0.00000000 </v>
   <v>       0.15189873       0.00000000       0.00000000 </v>
   <v>       0.14556962       0.00000000       0.00000000 </v>
   <v>       0.13924051       0.00000000       0.00000000 </v>
   <v>       0.13291139       0.00000000       0.00000000 </v>
   <v>       0.12658228       0.00000000       0.00000000 </v>
   <v>       0.12025316       0.00000000       0.00000000 </v>
   <v>       0.11392405       0.00000000       0.00000000 </v>
   <v>       0.10759494       0.00000000       0.00000000 </v>
   <v>       0.10126582       0.00000000       0.00000000 </v>
   <v>       0.09493671       0.00000000       0.00000000 </v>
   <v>       0.08860759       0.00000000       0.00000000 </v>
   <v>       0.08227848       0.00000000       0.00000000 </v>
   <v>       0.07594937       0.00000000       0.00000000 </v>
   <v>       0.06962025       0.00000000       0.00000000 </v>
   <v>       0.06329114       0.00000000       0.00000000 </v>
   <v>       0.05696203       0.00000000       0.00000000 </v>
   <v>       0.05063291       0.00000000       0.00000000 </v>
   <v>       0.04430380       0.00000000       0.00000000 </v>
   <v>       0.03797468       0.00000000       0.00000000 </v>
   <v>       0.03164557       0.00000000       0.00000000 </v>
   <v>       0.02531646       0.00000000       0.00000000 </v>
   <v>       0.01898734       0.00000000       0.00000000 </v>
   <v>       0.01265823       0.00000000       0.00000000 </v>
   <v>       0.00632911       0.00000000       0.00000000 </v>
   <v>       0.00000000       0.00000000       0.00000000 </v>
  </varray>
  <varray name="weights" >
   <v>       0.00416667 </v>
   <v>       0.00416667 </v>
   <v>       0.00416667 </v>
   <v>       0.00416667 </v>
   <v>       0.00416667 </v>
   <v>       0.00416667 </v>
   <v>       0.00416667 </v>
   <v>       0.00416667 </v>
   <v>       0.00416667 </v>
   <v>       0.00416667 </v>
   <v>       0.00416667 </v>
   <v>       0.00416667 </v>
   <v>       0.00416667 </v>
   <v>       0.00416667 </v>
   <v>       0.00416667 </v>
   <v>       0.00416667 </v>
   <v>       0.00416667 </v>
   <v>       0.00416667 </v>
   <v>       0.00416667 </v>
   <v>       0.00416667 </v>
   <v>       0.00416667 </v>
   <v>       0.00416667 </v>
   <v>       0.00416667 </v>
   <v>       0.00416667 </v>
   <v>       0.00416667 </v>
   <v>       0.00416667 </v>
   <v>       0.00416667 </v>
   <v>       0.00416667 </v>
   <v>       0.00416667 </v>
   <v>       0.00416667 </v>
   <v>       0.00416667 </v>
   <v>       0.00416667 </v>
   <v>       0.00416667 </v>
   <v>       0.00416667 </v>
   <v>       0.00416667 </v>
   <v>       0.00416667 </v>
   <v>       0.00416667 </v>
   <v>       0.00416667 </v>
   <v>       0.00416667 </v>
   <v>       0.00416667 </v>
   <v>       0.00416667 </v>
   <v>       0.00416667 </v>
   <v>       0.00416667 </v>
   <v>       0.00416667 </v>
   <v>       0.00416667 </v>
   <v>       0.00416667 </v>
   <v>       0.00416667 </v>
   <v>       0.00416667 </v>
   <v>       0.00416667 </v>
   <v>       0.00416667 </v>
   <v>       0.00416667 </v>
   <v>       0.00416667 </v>
   <v>       0.00416667 </v>
   <v>       0.00416667 </v>
   <v>       0.00416667 </v>
   <v>       0.00416667 </v>
   <v>       0.00416667 </v>
   <v>       0.00416667 </v>
   <v>       0.00416667 </v>
   <v>       0.00416667 </v>
   <v>       0.00416667 </v>
   <v>       0.00416667 </v>
   <v>       0.00416667 </v>
   <v>       0.00416667 </v>
   <v>       0.00416667 </v>
   <v>       0.00416667 </v>
   <v>       0.00416667 </v>
   <v>       0.00416667 </v>
   <v>       0.00416667 </v>
   <v>       0.00416667 </v>
   <v>       0.00416667 </v>
   <v>       0.00416667 </v>
   <v>       0.00416667 </v>
   <v>       0.00416667 </v>
   <v>       0.00416667 </v>
   <v>       0.00416667 </v>
   <v>       0.00416667 </v>
   <v>       0.00416667 </v>
   <v>       0.00416667 </v>
   <v>       0.00416667 </v>
   <v>       0.00416667 </v>
   <v>       0.00416667 </v>
   <v>       0.00416667 </v>
   <v>       0.00416667 </v>
   <v>       0.00416667 </v>
   <v>       0.00416667 </v>
   <v>       0.00416667 </v>
   <v>       0.00416667 </v>
   <v>       0.00416667 </v>
   <v>       0.00416667 </v>
   <v>       0.00416667 </v>
   <v>       0.00416667 </v>
   <v>       0.00416667 </v>
   <v>       0.00416667 </v>
   <v>       0.00416667 </v>
   <v>       0.00416667 </v>
   <v>       0.00416667 </v>
   <v>       0.00416667 </v>
   <v>       0.00416667 </v>
   <v>       0.00416667 </v>
   <v>       0.00416667 </v>
   <v>       0.00416667 </v>
   <v>       0.00416667 </v>
   <v>       0.00416667 </v>
   <v>       0.00416667 </v>
   <v>       0.00416667 </v>
   <v>       0.00416667 </v>
   <v>       0.00416667 </v>
   <v>       0.00416667 </v>
   <v>       0.00416667 </v>
   <v>       0.00416667 </v>
   <v>       0.00416667 </v>
   <v>       0.00416667 </v>
   <v>       0.00416667 </v>
   <v>       0.00416667 </v>
   <v>       0.00416667 </v>
   <v>       0.00416667 </v>
   <v>       0.00416667 </v>
   <v>       0.00416667 </v>
   <v>       0.00416667 </v>
   <v>       0.00416667 </v>
   <v>       0.00416667 </v>
   <v>       0.00416667 </v>
   <v>       0.00416667 </v>
   <v>       0.00416667 </v>
   <v>       0.00416667 </v>
   <v>       0.00416667 </v>
   <v>       0.00416667 </v>
   <v>       0.00416667 </v>
   <v>       0.00416667 </v>
   <v>       0.00416667 </v>
   <v>       0.00416667 </v>
   <v>       0.00416667 </v>
   <v>       0.00416667 </v>
   <v>       0.00416667 </v>
   <v>       0.00416667 </v>
   <v>       0.00416667 </v>
   <v>       0.00416667 </v>
   <v>       0.00416667 </v>
   <v>       0.00416667 </v>
   <v>       0.00416667 </v>
   <v>       0.00416667 </v>
   <v>       0.00416667 </v>
   <v>       0.00416667 </v>
   <v>       0.00416667 </v>
   <v>       0.00416667 </v>
   <v>       0.00416667 </v>
   <v>       0.00416667 </v>
   <v>       0.00416667 </v>
   <v>       0.00416667 </v>
   <v>       0.00416667 </v>
   <v>       0.00416667 </v>
   <v>       0.00416667 </v>
   <v>       0.00416667 </v>
   <v>       0.00416667 </v>
   <v>       0.00416667 </v>
   <v>       0.00416667 </v>
   <v>       0.00416667 </v>
   <v>       0.00416667 </v>
   <v>       0.00416667 </v>
   <v>       0.00416667 </v>
   <v>       0.00416667 </v>
   <v>       0.00416667 </v>
   <v>       0.00416667 </v>
   <v>       0.00416667 </v>
   <v>       0.00416667 </v>
   <v>       0.00416667 </v>
   <v>       0.00416667 </v>
   <v>       0.00416667 </v>
   <v>       0.00416667 </v>
   <v>       0.00416667 </v>
   <v>       0.00416667 </v>
   <v>       0.00416667 </v>
   <v>       0.00416667 </v>
   <v>       0.00416667 </v>
   <v>       0.00416667 </v>
   <v>       0.00416667 </v>
   <v>       0.00416667 </v>
   <v>       0.00416667 </v>
   <v>       0.00416667 </v>
   <v>       0.00416667 </v>
   <v>       0.00416667 </v>
   <v>       0.00416667 </v>
   <v>       0.00416667 </v>
   <v>       0.00416667 </v>
   <v>       0.00416667 </v>
   <v>       0.00416667 </v>
   <v>       0.00416667 </v>
   <v>       0.00416667 </v>
   <v>       0.00416667 </v>
   <v>       0.00416667 </v>
   <v>       0.00416667 </v>
   <v>       0.00416667 </v>
   <v>       0.00416667 </v>
   <v>       0.00416667 </v>
   <v>       0.00416667 </v>
   <v>       0.00416667 </v>
   <v>       0.00416667 </v>
   <v>       0.00416667 </v>
   <v>       0.00416667 </v>
   <v>       0.00416667 </v>
   <v>       0.00416667 </v>
   <v>       0.00416667 </v>
   <v>       0.00416667 </v>
   <v>       0.00416667 </v>
   <v>       0.00416667 </v>
   <v>       0.00416667 </v>
   <v>       0.00416667 </v>
   <v>       0.00416667 </v>
   <v>       0.00416667 </v>
   <v>       0.00416667 </v>
   <v>       0.00416667 </v>
   <v>       0.00416667 </v>
   <v>       0.00416667 </v>
   <v>       0.00416667 </v>
   <v>       0.00416667 </v>
   <v>       0.00416667 </v>
   <v>       0.00416667 </v>
   <v>       0.00416667 </v>
   <v>       0.00416667 </v>
   <v>       0.00416667 </v>
   <v>       0.00416667 </v>
   <v>       0.00416667 </v>
   <v>       0.00416667 </v>
   <v>       0.00416667 </v>
   <v>       0.00416667 </v>
   <v>       0.00416667 </v>
   <v>       0.00416667 </v>
   <v>       0.00416667 </v>
   <v>       0.00416667 </v>
   <v>       0.00416667 </v>
   <v>       0.00416667 </v>
   <v>       0.00416667 </v>
   <v>       0.00416667 </v>
   <v>       0.00416667 </v>
   <v>       0.00416667 </v>
   <v>       0.00416667 </v>
   <v>       0.00416667 </v>
   <v>       0.00416667 </v>
   <v>       0.00416667 </v>
  </varray>
 </kpoints>
 <parameters>
  <separator name="general" >
   <i type="string" name="SYSTEM">MoS2 band (SOC OFF)</i>
   <i type="logical" name="LCOMPAT"> F  </i>
  </separator>
  <separator name="electronic" >
   <i type="string" name="PREC">accura</i>
   <i name="ENMAX">    600.00000000</i>
   <i name="ENAUG">    392.42700000</i>
   <i name="EDIFF">      0.00000001</i>
   <i type="int" name="IALGO">    38</i>
   <i type="int" name="IWAVPR">    10</i>
   <i type="int" name="NBANDS">    24</i>
   <i name="NELECT">     24.00000000</i>
   <i type="int" name="TURBO">     0</i>
   <i type="int" name="IRESTART">     0</i>
   <i type="int" name="NREBOOT">     0</i>
   <i type="int" name="NMIN">     0</i>
   <i name="EREF">      0.00000000</i>
   <separator name="electronic smearing" >
    <i type="int" name="ISMEAR">     0</i>
    <i name="SIGMA">      0.05000000</i>
    <i name="KSPACING">      0.50000000</i>
    <i type="logical" name="KGAMMA"> T  </i>
   </separator>
   <separator name="electronic projectors" >
    <i type="logical" name="LREAL"> F  </i>
    <v name="ROPT">      0.00000000      0.00000000</v>
    <i type="int" name="LMAXPAW">  -100</i>
    <i type="int" name="LMAXMIX">     2</i>
    <i type="logical" name="NLSPLINE"> F  </i>
   </separator>
   <separator name="electronic startup" >
    <i type="int" name="ISTART">     1</i>
    <i type="int" name="ICHARG">    11</i>
    <i type="int" name="INIWAV">     1</i>
   </separator>
   <separator name="electronic spin" >
    <i type="int" name="ISPIN">     2</i>
    <i type="logical" name="LNONCOLLINEAR"> F  </i>
    <v name="MAGMOM">      1.00000000      1.00000000      1.00000000</v>
    <i name="NUPDOWN">     -1.00000000</i>
    <i type="logical" name="LSORBIT"> F  </i>
    <v name="SAXIS">      0.00000000      0.00000000      1.00000000</v>
    <i type="logical" name="LSPIRAL"> F  </i>
    <v name="QSPIRAL">      0.00000000      0.00000000      0.00000000</v>
    <i type="logical" name="LZEROZ"> F  </i>
   </separator>
   <separator name="electronic exchange-correlation" >
    <i type="logical" name="LASPH"> F  </i>
    <i type="logical" name="LMETAGGA"> F  </i>
   </separator>
   <separator name="electronic convergence" >
    <i type="int" name="NELM">    60</i>
    <i type="int" name="NELMDL">     0</i>
    <i type="int" name="NELMIN">     2</i>
    <i name="ENINI">    600.00000000</i>
    <separator name="electronic convergence detail" >
     <i type="logical" name="LDIAG"> T  </i>
     <i type="logical" name="LSUBROT"> F  </i>
     <i name="WEIMIN">      0.00000000</i>
     <i name="EBREAK">      0.00000000</i>
     <i name="DEPER">      0.30000000</i>
     <i type="int" name="NRMM">     4</i>
     <i name="TIME">      0.40000000</i>
    </separator>
   </separator>
   <separator name="electronic mixer" >
    <i name="AMIX">      0.40000000</i>
    <i name="BMIX">      1.00000000</i>
    <i name="AMIN">      0.10000000</i>
    <i name="AMIX_MAG">      1.60000000</i>
    <i name="BMIX_MAG">      1.00000000</i>
    <separator name="electronic mixer details" >
     <i type="int" name="IMIX">     4</i>
     <i type="logical" name="MIXFIRST"> F  </i>
     <i type="int" name="MAXMIX">   -45</i>
     <i name="WC">    100.00000000</i>
     <i type="int" name="INIMIX">     1</i>
     <i type="int" name="MIXPRE">     1</i>
     <i type="int" name="MREMOVE">     5</i>
    </separator>
   </separator>
   <separator name="electronic dipolcorrection" >
    <i type="logical" name="LDIPOL"> F  </i>
    <i type="logical" name="LMONO"> F  </i>
    <i type="int" name="IDIPOL">     0</i>
    <i name="EPSILON">      1.00000000</i>
    <v name="DIPOL">   -100.00000000   -100.00000000   -100.00000000</v>
    <i name="EFIELD">      0.00000000</i>
   </separator>
  </separator>
  <separator name="grids" >
   <i type="int" name="NGX">    28</i>
   <i type="int" name="NGY">    28</i>
   <i type="int" name="NGZ">   280</i>
   <i type="int" name="NGXF">    56</i>
   <i type="int" name="NGYF">    56</i>
   <i type="int" name="NGZF">   560</i>
   <i type="logical" name="ADDGRID"> F  </i>
  </separator>
  <separator name="ionic" >
   <i type="int" name="NSW">     0</i>
   <i type="int" name="IBRION">    -1</i>
   <i type="int" name="ISIF">     2</i>
   <i name="PSTRESS">      0.00000000</i>
   <i name="EDIFFG">      0.00000010</i>
   <i type="int" name="NFREE">     0</i>
   <i name="POTIM">      0.50000000</i>
   <i name="SMASS">     -3.00000000</i>
   <i name="SCALEE">      1.00000000</i>
  </separator>
  <separator name="ionic md" >
   <i name="TEBEG">      0.00010000</i>
   <i name="TEEND">      0.00010000</i>
   <i type="int" name="NBLOCK">     1</i>
   <i type="int" name="KBLOCK">     1</i>
   <i type="int" name="NPACO">   256</i>
   <i name="APACO">     16.00000000</i>
  </separator>
  <separator name="symmetry" >
   <i type="int" name="ISYM">     2</i>
   <i name="SYMPREC">      0.00001000</i>
  </separator>
  <separator name="dos" >
   <i type="logical" name="LORBIT"> F  </i>
   <v name="RWIGS">     -1.00000000     -1.00000000</v>
   <i type="int" name="NEDOS">   301</i>
   <i name="EMIN">     10.00000000</i>
   <i name="EMAX">    -10.00000000</i>
   <i name="EFERMI">      0.00000000</i>
  </separator>
  <separator name="writing" >
   <i type="int" name="NWRITE">     2</i>
   <i type="logical" name="LWAVE"> F  </i>
   <i type="logical" name="LCHARG"> F  </i>
   <i type="logical" name="LPARD"> F  </i>
   <i type="logical" name="LVTOT"> F  </i>
   <i type="logical" name="LVHAR"> F  </i>
   <i type="logical" name="LELF"> F  </i>
   <i type="logical" name="LOPTICS"> F  </i>
   <v name="STM">      0.00000000      0.00000000      0.00000000      0.00000000      0.00000000      0.00000000      0.00000000</v>
  </separator>
  <separator name="performance" >
   <i type="int" name="NPAR">     8</i>
   <i type="int" name="NSIM">     4</i>
   <i type="int" name="NBLK">    -1</i>
   <i type="logical" name="LPLANE"> T  </i>
   <i type="logical" name="LSCALAPACK"> T  </i>
   <i type="logical" name="LSCAAWARE"> F  </i>
   <i type="logical" name="LSCALU"> F  </i>
   <i type="logical" name="LASYNC"> F  </i>
   <i type="logical" name="LORBITALREAL"> F  </i>
  </separator>
  <separator name="miscellaneous" >
   <i type="int" name="IDIOT">     3</i>
   <i type="logical" name="LMUSIC"> F  </i>
   <v name="POMASS">     95.94000000     32.06600000</v>
   <v name="DARWINR">      0.00000000      0.00000000</v>
   <v name="DARWINV">      1.00000000      1.00000000</v>
   <i type="logical" name="LCORR"> T  </i>
  </separator>
  <i type="logical" name="GGA_COMPAT"> T  </i>
  <i type="logical" name="LBERRY"> F  </i>
  <i type="int" name="ICORELEVEL">     0</i>
  <i type="logical" name="LDAU"> F  </i>
  <i type="int" name="I_CONSTRAINED_M">     0</i>
  <separator name="electronic exchange-correlation" >
   <i type="string" name="GGA">--</i>
   <i type="int" name="VOSKOWN">     0</i>
   <i type="logical" name="LHFCALC"> F  </i>
   <i type="string" name="PRECFOCK"></i>
   <i type="logical" name="LSYMGRAD"> F  </i>
   <i type="logical" name="LHFONE"> F  </i>
   <i type="logical" name="LRHFCALC"> F  </i>
   <i type="logical" name="LTHOMAS"> F  </i>
   <i type="logical" name="LMODELHF"> F  </i>
   <i name="ENCUT4O">     -1.00000000</i>
   <i type="int" name="EXXOEP">     0</i>
   <i type="int" name="FOURORBIT">     0</i>
   <i name="AEXX">      0.00000000</i>
   <i name="HFALPHA">      0.00000000</i>
   <i name="MCALPHA">      0.00000000</i>
   <i name="ALDAX">      1.00000000</i>
   <i name="AGGAX">      1.00000000</i>
   <i name="ALDAC">      1.00000000</i>
   <i name="AGGAC">      1.00000000</i>
   <i type="int" name="NKREDX">     1</i>
   <i type="int" name="NKREDY">     1</i>
   <i type="int" name="NKREDZ">     1</i>
   <i type="logical" name="SHIFTRED"> F  </i>
   <i type="logical" name="ODDONLY"> F  </i>
   <i type="logical" name="EVENONLY"> F  </i>
   <i type="int" name="LMAXFOCK">     0</i>
   <i type="int" name="NMAXFOCKAE">     0</i>
   <i type="logical" name="LFOCKAEDFT"> F  </i>
   <i name="HFSCREEN">      0.00000000</i>
   <i name="HFSCREENC">      0.00000000</i>
   <i type="int" name="NBANDSGWLOW">     0</i>
  </separator>
  <separator name="vdW DFT" >
   <i type="logical" name="LUSE_VDW"> F  </i>
   <i name="Zab_VDW">     -0.84910000</i>
   <i name="PARAM1">      0.12340000</i>
   <i name="PARAM2">      1.00000000</i>
   <i name="PARAM3">      0.00000000</i>
  </separator>
  <separator name="model GW" >
   <i type="int" name="MODEL_GW">     0</i>
   <i name="MODEL_EPS0">     61.86883188</i>
   <i name="MODEL_ALPHA">      1.00000000</i>
  </separator>
  <separator name="linear response parameters" >
   <i type="logical" name="LEPSILON"> F  </i>
   <i type="logical" name="LRPA"> F  </i>
   <i type="logical" name="LNABLA"> F  </i>
   <i type="logical" name="LVEL"> F  </i>
   <i type="int" name="KINTER">     0</i>
   <i name="CSHIFT">      0.10000000</i>
   <i name="OMEGAMAX">     -1.00000000</i>
   <i name="DEG_THRESHOLD">      0.00200000</i>
  </separator>
  <separator name="orbital magnetization" >
   <i type="logical" name="NUCIND"> F  </i>
   <v name="MAGPOS">      0.00000000      0.00000000      0.00000000</v>
   <i type="logical" name="LNICSALL"> T  </i>
   <i type="logical" name="ORBITALMAG"> F  </i>
   <i type="logical" name="LMAGBLOCH"> F  </i>
   <i type="logical" name="LCHIMAG"> F  </i>
   <i type="logical" name="LGAUGE"> T  </i>
   <i type="int" name="MAGATOM">     0</i>
   <v name="MAGDIPOL">      0.00000000      0.00000000      0.00000000</v>
   <v name="AVECCONST">      0.00000000      0.00000000      0.00000000</v>
  </separator>
  <separator name="response functions" >
   <i type="logical" name="LADDER"> F  </i>
   <i type="logical" name="LFXC"> F  </i>
   <i type="logical" name="LHARTREE"> T  </i>
   <i type="int" name="IBSE">     0</i>
   <v type="int" name="KPOINT">    -1     0     0     0</v>
   <i type="logical" name="LTCTE"> F  </i>
   <i type="logical" name="LTETE"> F  </i>
   <i type="logical" name="LTRIPLET"> F  </i>
   <i type="logical" name="LFXCEPS"> F  </i>
   <i type="logical" name="LFXHEG"> F  </i>
   <i type="int" name="NATURALO">     0</i>
   <i type="logical" name="L2ORDER"> F  </i>
   <i type="logical" name="LUSEW"> F  </i>
   <i name="ENCUTGW">     -2.00000000</i>
   <i name="ENCUTGWSOFT">     -2.00000000</i>
   <i name="ENCUTLF">     -1.00000000</i>
   <i type="int" name="LMAXMP2">    -1</i>
   <i name="SCISSOR">      0.00000000</i>
   <i type="int" name="NOMEGA">     0</i>
   <i type="int" name="NOMEGAR">     0</i>
   <i type="int" name="NBANDSGW">    -1</i>
   <i type="int" name="NBANDSO">    -1</i>
   <i type="int" name="NBANDSV">    -1</i>
   <i type="int" name="NELM">     1</i>
   <i type="int" name="NELMHF">     1</i>
   <i type="int" name="DIM">     3</i>
   <i type="int" name="ANTIRES">     0</i>
   <i name="OMEGAMAX">    -30.00000000</i>
   <i name="OMEGAMIN">    -30.00000000</i>
   <i name="OMEGATL">   -200.00000000</i>
   <i type="int" name="OMEGAGRID">     0</i>
   <i name="CSHIFT">     -0.10000000</i>
   <i type="logical" name="SELFENERGY"> F  </i>
   <i type="logical" name="LSPECTRAL"> F  </i>
   <i type="logical" name="LSPECTRALGW"> F  </i>
   <i type="logical" name="LSINGLES"> F  </i>
   <i type="logical" name="LFERMIGW"> F  </i>
   <i type="logical" name="ODDONLYGW"> F  </i>
   <i type="logical" name="EVENONLYGW"> F  </i>
   <i type="int" name="NKREDLFX">     1</i>
   <i type="int" name="NKREDLFY">     1</i>
   <i type="int" name="NKREDLFZ">     1</i>
   <i type="int" name="MAXMEM">  1800</i>
   <i type="int" name="TELESCOPE">     0</i>
   <i type="int" name="TAUPAR">     1</i>
   <i type="int" name="OMEGAPAR">    -1</i>
   <i name="LAMBDA">      1.00000000</i>
  </separator>
  <separator name="External order field" >
   <i name="OFIELD_KAPPA">      0.00000000</i>
   <v name="OFIELD_K">      0.00000000      0.00000000      0.00000000</v>
   <i name="OFIELD_Q6_NEAR">      0.00000000</i>
   <i name="OFIELD_Q6_FAR">      0.00000000</i>
   <i name="OFIELD_A">      0.00000000</i>
  </separator>
  <separator name="solvation model" >
   <i type="logical" name="LSOL"> F  </i>
  </separator>
 </parameters>
 <atominfo>
  <atoms>       3 </atoms>
  <types>       2 </types>
  <array name="atoms" >
   <dimension dim="1">ion</dimension>
   <field type="string">element</field>
   <field type="int">atomtype</field>
   <set>
    <rc><c>Mo</c><c>   1</c></rc>
    <rc><c>S </c><c>   2</c></rc>
    <rc><c>S </c><c>   2</c></rc>
   </set>
  </array>
  <array name="atomtypes" >
   <dimension dim="1">type</dimension>
   <field type="int">atomspertype</field>
   <field type="string">element</field>
   <field>mass</field>
   <field>valence</field>
   <field type="string">pseudopotential</field>
   <set>
    <rc><c>   1</c><c>Mo</c><c>     95.94000000</c><c>     12.00000000</c><c> PAW_PBE Mo_pv 08Apr2002                </c></rc>
    <rc><c>   2</c><c>S </c><c>     32.06600000</c><c>      6.00000000</c><c>  PAW_PBE S 17Jan2003                   </c></rc>
   </set>
  </array>
 </atominfo>
 <structure name="initialpos" >
  <crystal>
   <varray name="basis" >
    <v>       1.59817141      -2.76811338       0.00000000 </v>
    <v>       1.59817141       2.76811338       0.00000000 </v>
    <v>       0.00000000       0.00000000      34.96267827 </v>
   </varray>
   <i name="volume">    309.34415938 </i>
   <varray name="rec_basis" >
    <v>       0.31285756      -0.18062844       0.00000000 </v>
    <v>       0.31285756       0.18062844       0.00000000 </v>
    <v>       0.00000000       0.00000000       0.02860193 </v>
   </varray>
  </crystal>
  <varray name="positions" >
   <v>       0.66666700       0.33333300       0.10664700 </v>
   <v>       0.33333300       0.66666700       0.06198962 </v>
   <v>       0.33333300       0.66666700       0.15130538 </v>
  </varray>
 </structure>
 <calculation>
  <scstep>
   <time name="dav">   76.32   76.36</time>
   <time name="total">   76.74   76.80</time>
   <energy>
    <i name="alphaZ">     17.16885849 </i>
    <i name="ewald">  11816.21891409 </i>
    <i name="hartreedc"> -13384.30211551 </i>
    <i name="XCdc">     61.92004879 </i>
    <i name="pawpsdc">   1166.43637451 </i>
    <i name="pawaedc">  -1145.31521571 </i>
    <i name="eentropy">     -0.00000000 </i>
    <i name="bandstr">   -387.41360662 </i>
    <i name="atom">   1837.94417650 </i>
    <i name="e_fr_energy">    -17.34256545 </i>
    <i name="e_wo_entrp">    -17.34256545 </i>
    <i name="e_0_energy">    -17.34256545 </i>
   </energy>
  </scstep>
  <scstep>
   <time name="dav">   73.01   73.01</time>
   <time name="total">   73.01   73.02</time>
   <energy>
    <i name="e_fr_energy">    -21.30066059 </i>
    <i name="e_wo_entrp">    -21.30066059 </i>
    <i name="e_0_energy">    -21.30066059 </i>
   </energy>
  </scstep>
  <scstep>
   <time name="dav">   76.17   76.17</time>
   <time name="total">   76.18   76.18</time>
   <energy>
    <i name="e_fr_energy">    -21.37074367 </i>
    <i name="e_wo_entrp">    -21.37074367 </i>
    <i name="e_0_energy">    -21.37074367 </i>
   </energy>
  </scstep>
  <scstep>
   <time name="dav">   76.29   76.29</time>
   <time name="total">   76.29   76.30</time>
   <energy>
    <i name="e_fr_energy">    -21.37236393 </i>
    <i name="e_wo_entrp">    -21.37236393 </i>
    <i name="e_0_energy">    -21.37236393 </i>
   </energy>
  </scstep>
  <scstep>
   <time name="dav">   77.79   77.79</time>
   <time name="total">   77.79   77.80</time>
   <energy>
    <i name="e_fr_energy">    -21.37241426 </i>
    <i name="e_wo_entrp">    -21.37241426 </i>
    <i name="e_0_energy">    -21.37241426 </i>
   </energy>
  </scstep>
  <scstep>
   <time name="dav">   78.73   78.74</time>
   <time name="total">   78.74   78.74</time>
   <energy>
    <i name="e_fr_energy">    -21.37241477 </i>
    <i name="e_wo_entrp">    -21.37241477 </i>
    <i name="e_0_energy">    -21.37241477 </i>
   </energy>
  </scstep>
  <scstep>
   <time name="dav">   72.71   72.71</time>
   <time name="total">   72.71   72.72</time>
   <energy>
    <i name="alphaZ">     17.16885849 </i>
    <i name="ewald">  11816.21891409 </i>
    <i name="hartreedc"> -13384.30211551 </i>
    <i name="XCdc">     61.92004879 </i>
    <i name="pawpsdc">   1166.43637451 </i>
    <i name="pawaedc">  -1145.31521571 </i>
    <i name="eentropy">     -0.00000000 </i>
    <i name="bandstr">   -391.44345594 </i>
    <i name="atom">   1837.94417650 </i>
    <i name="e_fr_energy">    -21.37241478 </i>
    <i name="e_wo_entrp">    -21.37241478 </i>
    <i name="e_0_energy">    -21.37241478 </i>
   </energy>
  </scstep>
  <structure>
   <crystal>
    <varray name="basis" >
     <v>       1.59817141      -2.76811338       0.00000000 </v>
     <v>       1.59817141       2.76811338       0.00000000 </v>
     <v>       0.00000000       0.00000000      34.96267827 </v>
    </varray>
    <i name="volume">    309.34415938 </i>
    <varray name="rec_basis" >
     <v>       0.31285756      -0.18062844       0.00000000 </v>
     <v>       0.31285756       0.18062844       0.00000000 </v>
     <v>       0.00000000       0.00000000       0.02860193 </v>
    </varray>
   </crystal>
   <varray name="positions" >
    <v>       0.66666700       0.33333300       0.10664700 </v>
    <v>       0.33333300       0.66666700       0.06198962 </v>
    <v>       0.33333300       0.66666700       0.15130538 </v>
   </varray>
  </structure>
  <varray name="forces" >
   <v>      -0.00000000      -0.00000000       0.00000000 </v>
   <v>       0.00000000       0.00000000      -0.12049174 </v>
   <v>       0.00000000       0.00000000       0.12049174 </v>
  </varray>
  <varray name="stress" >
   <v>       2.68690820       0.00000000       0.00000000 </v>
   <v>       0.00000000       2.68690683       0.00000000 </v>
   <v>       0.00000000       0.00000000       9.83546035 </v>
  </varray>
  <energy>
   <i name="e_fr_energy">    -21.37241478 </i>
   <i name="e_wo_entrp">    -21.37241478 </i>
   <i name="e_0_energy">     -0.00000000 </i>
  </energy>
  <time name="totalsc">  565.21  565.30</time>
  <eigenvalues>
   <array>
    <dimension dim="1">band</dimension>
    <dimension dim="2">kpoint</dimension>
    <dimension dim="3">spin</dimension>
    <field>eigene</field>
    <field>occ</field>
    <set>
     <set comment="spin 1">
      <set comment="kpoint 1">
       <r>  -38.8734    1.0000 </r>
       <r>  -38.6879    1.0000 </r>
       <r>  -38.6879    1.0000 </r>
       <r>  -17.8718    1.0000 </r>
       <r>  -16.5662    1.0000 </r>
       <r>   -9.3957    1.0000 </r>
       <r>   -6.4412    1.0000 </r>
       <r>   -6.4412    1.0000 </r>
       <r>   -5.5571    1.0000 </r>
       <r>   -5.3331    1.0000 </r>
       <r>   -5.3330    1.0000 </r>
       <r>   -3.8114    1.0000 </r>
       <r>   -1.0807    0.0000 </r>
       <r>   -1.0807    0.0000 </r>
       <r>   -0.8472    0.0000 </r>
       <r>   -0.8472    0.0000 </r>
       <r>    1.5521    0.0000 </r>
       <r>    1.7242    0.0000 </r>
       <r>    2.0212    0.0000 </r>
       <r>    2.2698    0.0000 </r>
       <r>    2.4200    0.0000 </r>
       <r>    2.7005    0.0000 </r>
       <r>    3.0169    0.0000 </r>
       <r>    3.4971    0.0000 </r>
      </set>
      <set comment="kpoint 2">
       <r>  -38.8733    1.0000 </r>
       <r>  -38.6881    1.0000 </r>
       <r>  -38.6879    1.0000 </r>
       <r>  -17.8710    1.0000 </r>
       <r>  -16.5658    1.0000 </r>
       <r>   -9.3948    1.0000 </r>
       <r>   -6.4430    1.0000 </r>
       <r>   -6.4403    1.0000 </r>
       <r>   -5.5677    1.0000 </r>
       <r>   -5.3343    1.0000 </r>
       <r>   -5.3236    1.0000 </r>
       <r>   -3.8117    1.0000 </r>
       <r>   -1.0820    0.0000 </r>
       <r>   -1.0793    0.0000 </r>
       <r>   -0.8497    0.0000 </r>
       <r>   -0.8481    0.0000 </r>
       <r>    1.5538    0.0000 </r>
       <r>    1.7252    0.0000 </r>
       <r>    2.0223    0.0000 </r>
       <r>    2.2708    0.0000 </r>
       <r>    2.4224    0.0000 </r>
       <r>    2.7026    0.0000 </r>
       <r>    3.0179    0.0000 </r>
       <r>    3.4982    0.0000 </r>
      </set>
      <set comment="kpoint 3">
       <r>  -38.8732    1.0000 </r>
       <r>  -38.6886    1.0000 </r>
       <r>  -38.6880    1.0000 </r>
       <r>  -17.8686    1.0000 </r>
       <r>  -16.5649    1.0000 </r>
       <r>   -9.3921    1.0000 </r>
       <r>   -6.4485    1.0000 </r>
       <r>   -6.4379    1.0000 </r>
       <r>   -5.5952    1.0000 </r>
       <r>   -5.3383    1.0000 </r>
       <r>   -5.2994    1.0000 </r>
       <r>   -3.8128    1.0000 </r>
       <r>   -1.0861    0.0000 </r>
       <r>   -1.0749    0.0000 </r>
       <r>   -0.8571    0.0000 </r>
       <r>   -0.8509    0.0000 </r>
       <r>    1.5588    0.0000 </r>
       <r>    1.7284    0.0000 </r>
       <r>    2.0257    0.0000 </r>
       <r>    2.2740    0.0000 </r>
       <r>    2.4295    0.0000 </r>
       <r>    2.7090    0.0000 </r>
       <r>    3.0211    0.0000 </r>
       <r>    3.5016    0.0000 </r>
      </set>
      <set comment="kpoint 4">
       <r>  -38.8731    1.0000 </r>
       <r>  -38.6896    1.0000 </r>
       <r>  -38.6883    1.0000 </r>
       <r>  -17.8647    1.0000 </r>
       <r>  -16.5633    1.0000 </r>
       <r>   -9.3875    1.0000 </r>
       <r>   -6.4577    1.0000 </r>
       <r>   -6.4337    1.0000 </r>
       <r>   -5.6330    1.0000 </r>
       <r>   -5.3450    1.0000 </r>
       <r>   -5.2672    1.0000 </r>
       <r>   -3.8146    1.0000 </r>
       <r>   -1.0928    0.0000 </r>
       <r>   -1.0677    0.0000 </r>
       <r>   -0.8692    0.0000 </r>
       <r>   -0.8555    0.0000 </r>
       <r>    1.5670    0.0000 </r>
       <r>    1.7336    0.0000 </r>
       <r>    2.0313    0.0000 </r>
       <r>    2.2792    0.0000 </r>
       <r>    2.4410    0.0000 </r>
       <r>    2.7198    0.0000 </r>
       <r>    3.0262    0.0000 </r>
       <r>    3.5072    0.0000 </r>
      </set>
      <set comment="kpoint 5">
       <r>  -38.8728    1.0000 </r>
       <r>  -38.6909    1.0000 </r>
       <r>  -38.6886    1.0000 </r>
       <r>  -17.8592    1.0000 </r>
       <r>  -16.5610    1.0000 </r>
       <r>   -9.3811    1.0000 </r>
       <r>   -6.4704    1.0000 </r>
       <r>   -6.4280    1.0000 </r>
       <r>   -5.6764    1.0000 </r>
       <r>   -5.3543    1.0000 </r>
       <r>   -5.2314    1.0000 </r>
       <r>   -3.8172    1.0000 </r>
       <r>   -1.1020    0.0000 </r>
       <r>   -1.0577    0.0000 </r>
       <r>   -0.8859    0.0000 </r>
       <r>   -0.8619    0.0000 </r>
       <r>    1.5783    0.0000 </r>
       <r>    1.7410    0.0000 </r>
       <r>    2.0390    0.0000 </r>
       <r>    2.2865    0.0000 </r>
       <r>    2.4568    0.0000 </r>
       <r>    2.7352    0.0000 </r>
       <r>    3.0335    0.0000 </r>
       <r>    3.5151    0.0000 </r>
      </set>
      <set comment="kpoint 6">
       <r>  -38.8725    1.0000 </r>
       <r>  -38.6926    1.0000 </r>
       <r>  -38.6890    1.0000 </r>
       <r>  -17.8521    1.0000 </r>
       <r>  -16.5581    1.0000 </r>
       <r>   -9.3729    1.0000 </r>
       <r>   -6.4866    1.0000 </r>
       <r>   -6.4206    1.0000 </r>
       <r>   -5.7233    1.0000 </r>
       <r>   -5.3663    1.0000 </r>
       <r>   -5.1945    1.0000 </r>
       <r>   -3.8206    1.0000 </r>
       <r>   -1.1134    0.0000 </r>
       <r>   -1.0448    0.0000 </r>
       <r>   -0.9068    0.0000 </r>
       <r>   -0.8702    0.0000 </r>
       <r>    1.5925    0.0000 </r>
       <r>    1.7504    0.0000 </r>
       <r>    2.0490    0.0000 </r>
       <r>    2.2959    0.0000 </r>
       <r>    2.4762    0.0000 </r>
       <r>    2.7557    0.0000 </r>
       <r>    3.0428    0.0000 </r>
       <r>    3.5252    0.0000 </r>
      </set>
      <set comment="kpoint 7">
       <r>  -38.8721    1.0000 </r>
       <r>  -38.6947    1.0000 </r>
       <r>  -38.6894    1.0000 </r>
       <r>  -17.8435    1.0000 </r>
       <r>  -16.5546    1.0000 </r>
       <r>   -9.3630    1.0000 </r>
       <r>   -6.5062    1.0000 </r>
       <r>   -6.4115    1.0000 </r>
       <r>   -5.7723    1.0000 </r>
       <r>   -5.3810    1.0000 </r>
       <r>   -5.1575    1.0000 </r>
       <r>   -3.8248    1.0000 </r>
       <r>   -1.1269    0.0000 </r>
       <r>   -1.0292    0.0000 </r>
       <r>   -0.9316    0.0000 </r>
       <r>   -0.8802    0.0000 </r>
       <r>    1.6094    0.0000 </r>
       <r>    1.7619    0.0000 </r>
       <r>    2.0611    0.0000 </r>
       <r>    2.3074    0.0000 </r>
       <r>    2.4989    0.0000 </r>
       <r>    2.7817    0.0000 </r>
       <r>    3.0542    0.0000 </r>
       <r>    3.5377    0.0000 </r>
      </set>
      <set comment="kpoint 8">
       <r>  -38.8716    1.0000 </r>
       <r>  -38.6971    1.0000 </r>
       <r>  -38.6900    1.0000 </r>
       <r>  -17.8334    1.0000 </r>
       <r>  -16.5504    1.0000 </r>
       <r>   -9.3514    1.0000 </r>
       <r>   -6.5291    1.0000 </r>
       <r>   -6.4009    1.0000 </r>
       <r>   -5.8227    1.0000 </r>
       <r>   -5.3985    1.0000 </r>
       <r>   -5.1212    1.0000 </r>
       <r>   -3.8300    1.0000 </r>
       <r>   -1.1422    0.0000 </r>
       <r>   -1.0108    0.0000 </r>
       <r>   -0.9599    0.0000 </r>
       <r>   -0.8919    0.0000 </r>
       <r>    1.6288    0.0000 </r>
       <r>    1.7754    0.0000 </r>
       <r>    2.0754    0.0000 </r>
       <r>    2.3210    0.0000 </r>
       <r>    2.5241    0.0000 </r>
       <r>    2.8136    0.0000 </r>
       <r>    3.0676    0.0000 </r>
       <r>    3.5525    0.0000 </r>
      </set>
      <set comment="kpoint 9">
       <r>  -38.8710    1.0000 </r>
       <r>  -38.6999    1.0000 </r>
       <r>  -38.6907    1.0000 </r>
       <r>  -17.8217    1.0000 </r>
       <r>  -16.5456    1.0000 </r>
       <r>   -9.3380    1.0000 </r>
       <r>   -6.5550    1.0000 </r>
       <r>   -6.3887    1.0000 </r>
       <r>   -5.8740    1.0000 </r>
       <r>   -5.4188    1.0000 </r>
       <r>   -5.0860    1.0000 </r>
       <r>   -3.8361    1.0000 </r>
       <r>   -1.1589    0.0000 </r>
       <r>   -0.9911    0.0000 </r>
       <r>   -0.9898    0.0000 </r>
       <r>   -0.9053    0.0000 </r>
       <r>    1.6504    0.0000 </r>
       <r>    1.7911    0.0000 </r>
       <r>    2.0917    0.0000 </r>
       <r>    2.3366    0.0000 </r>
       <r>    2.5512    0.0000 </r>
       <r>    2.8518    0.0000 </r>
       <r>    3.0831    0.0000 </r>
       <r>    3.5696    0.0000 </r>
      </set>
      <set comment="kpoint 10">
       <r>  -38.8704    1.0000 </r>
       <r>  -38.7031    1.0000 </r>
       <r>  -38.6914    1.0000 </r>
       <r>  -17.8085    1.0000 </r>
       <r>  -16.5402    1.0000 </r>
       <r>   -9.3230    1.0000 </r>
       <r>   -6.5840    1.0000 </r>
       <r>   -6.3750    1.0000 </r>
       <r>   -5.9261    1.0000 </r>
       <r>   -5.4419    1.0000 </r>
       <r>   -5.0521    1.0000 </r>
       <r>   -3.8433    1.0000 </r>
       <r>   -1.1767    0.0000 </r>
       <r>   -1.0250    0.0000 </r>
       <r>   -0.9663    0.0000 </r>
       <r>   -0.9204    0.0000 </r>
       <r>    1.6741    0.0000 </r>
       <r>    1.8087    0.0000 </r>
       <r>    2.1102    0.0000 </r>
       <r>    2.3543    0.0000 </r>
       <r>    2.5798    0.0000 </r>
       <r>    2.8964    0.0000 </r>
       <r>    3.1007    0.0000 </r>
       <r>    3.5891    0.0000 </r>
      </set>
      <set comment="kpoint 11">
       <r>  -38.8698    1.0000 </r>
       <r>  -38.7066    1.0000 </r>
       <r>  -38.6922    1.0000 </r>
       <r>  -17.7938    1.0000 </r>
       <r>  -16.5342    1.0000 </r>
       <r>   -9.3063    1.0000 </r>
       <r>   -6.6157    1.0000 </r>
       <r>   -6.3598    1.0000 </r>
       <r>   -5.9785    1.0000 </r>
       <r>   -5.4678    1.0000 </r>
       <r>   -5.0197    1.0000 </r>
       <r>   -3.8517    1.0000 </r>
       <r>   -1.1954    0.0000 </r>
       <r>   -1.0610    0.0000 </r>
       <r>   -0.9403    0.0000 </r>
       <r>   -0.9369    0.0000 </r>
       <r>    1.6997    0.0000 </r>
       <r>    1.8284    0.0000 </r>
       <r>    2.1307    0.0000 </r>
       <r>    2.3741    0.0000 </r>
       <r>    2.6095    0.0000 </r>
       <r>    2.9476    0.0000 </r>
       <r>    3.1203    0.0000 </r>
       <r>    3.6111    0.0000 </r>
      </set>
      <set comment="kpoint 12">
       <r>  -38.8690    1.0000 </r>
       <r>  -38.7104    1.0000 </r>
       <r>  -38.6931    1.0000 </r>
       <r>  -17.7776    1.0000 </r>
       <r>  -16.5276    1.0000 </r>
       <r>   -9.2881    1.0000 </r>
       <r>   -6.6501    1.0000 </r>
       <r>   -6.3431    1.0000 </r>
       <r>   -6.0312    1.0000 </r>
       <r>   -5.4965    1.0000 </r>
       <r>   -4.9890    1.0000 </r>
       <r>   -3.8614    1.0000 </r>
       <r>   -1.2145    0.0000 </r>
       <r>   -1.0986    0.0000 </r>
       <r>   -0.9552    0.0000 </r>
       <r>   -0.9118    0.0000 </r>
       <r>    1.7270    0.0000 </r>
       <r>    1.8501    0.0000 </r>
       <r>    2.1533    0.0000 </r>
       <r>    2.3960    0.0000 </r>
       <r>    2.6401    0.0000 </r>
       <r>    3.0050    0.0000 </r>
       <r>    3.1420    0.0000 </r>
       <r>    3.6356    0.0000 </r>
      </set>
      <set comment="kpoint 13">
       <r>  -38.8682    1.0000 </r>
       <r>  -38.7145    1.0000 </r>
       <r>  -38.6941    1.0000 </r>
       <r>  -17.7600    1.0000 </r>
       <r>  -16.5204    1.0000 </r>
       <r>   -9.2684    1.0000 </r>
       <r>   -6.6868    1.0000 </r>
       <r>   -6.3250    1.0000 </r>
       <r>   -6.0840    1.0000 </r>
       <r>   -5.5281    1.0000 </r>
       <r>   -4.9601    1.0000 </r>
       <r>   -3.8723    1.0000 </r>
       <r>   -1.2337    0.0000 </r>
       <r>   -1.1375    0.0000 </r>
       <r>   -0.9747    0.0000 </r>
       <r>   -0.8810    0.0000 </r>
       <r>    1.7561    0.0000 </r>
       <r>    1.8739    0.0000 </r>
       <r>    2.1780    0.0000 </r>
       <r>    2.4200    0.0000 </r>
       <r>    2.6716    0.0000 </r>
       <r>    3.0683    0.0000 </r>
       <r>    3.1656    0.0000 </r>
       <r>    3.6628    0.0000 </r>
      </set>
      <set comment="kpoint 14">
       <r>  -38.8673    1.0000 </r>
       <r>  -38.7189    1.0000 </r>
       <r>  -38.6952    1.0000 </r>
       <r>  -17.7409    1.0000 </r>
       <r>  -16.5125    1.0000 </r>
       <r>   -9.2473    1.0000 </r>
       <r>   -6.7257    1.0000 </r>
       <r>   -6.3054    1.0000 </r>
       <r>   -6.1367    1.0000 </r>
       <r>   -5.5625    1.0000 </r>
       <r>   -4.9329    1.0000 </r>
       <r>   -3.8848    1.0000 </r>
       <r>   -1.2527    0.0000 </r>
       <r>   -1.1772    0.0000 </r>
       <r>   -0.9956    0.0000 </r>
       <r>   -0.8481    0.0000 </r>
       <r>    1.7867    0.0000 </r>
       <r>    1.8996    0.0000 </r>
       <r>    2.2047    0.0000 </r>
       <r>    2.4460    0.0000 </r>
       <r>    2.7040    0.0000 </r>
       <r>    3.1369    0.0000 </r>
       <r>    3.1914    0.0000 </r>
       <r>    3.6929    0.0000 </r>
      </set>
      <set comment="kpoint 15">
       <r>  -38.8664    1.0000 </r>
       <r>  -38.7237    1.0000 </r>
       <r>  -38.6964    1.0000 </r>
       <r>  -17.7205    1.0000 </r>
       <r>  -16.5041    1.0000 </r>
       <r>   -9.2248    1.0000 </r>
       <r>   -6.7666    1.0000 </r>
       <r>   -6.2846    1.0000 </r>
       <r>   -6.1892    1.0000 </r>
       <r>   -5.5997    1.0000 </r>
       <r>   -4.9076    1.0000 </r>
       <r>   -3.8987    1.0000 </r>
       <r>   -1.2712    0.0000 </r>
       <r>   -1.2172    0.0000 </r>
       <r>   -1.0176    0.0000 </r>
       <r>   -0.8131    0.0000 </r>
       <r>    1.8189    0.0000 </r>
       <r>    1.9274    0.0000 </r>
       <r>    2.2334    0.0000 </r>
       <r>    2.4741    0.0000 </r>
       <r>    2.7375    0.0000 </r>
       <r>    3.2100    0.0000 </r>
       <r>    3.2191    0.0000 </r>
       <r>    3.7261    0.0000 </r>
      </set>
      <set comment="kpoint 16">
       <r>  -38.8654    1.0000 </r>
       <r>  -38.7287    1.0000 </r>
       <r>  -38.6977    1.0000 </r>
       <r>  -17.6986    1.0000 </r>
       <r>  -16.4952    1.0000 </r>
       <r>   -9.2011    1.0000 </r>
       <r>   -6.8093    1.0000 </r>
       <r>   -6.2625    1.0000 </r>
       <r>   -6.2415    1.0000 </r>
       <r>   -5.6398    1.0000 </r>
       <r>   -4.8841    1.0000 </r>
       <r>   -3.9143    1.0000 </r>
       <r>   -1.2889    0.0000 </r>
       <r>   -1.2574    0.0000 </r>
       <r>   -1.0407    0.0000 </r>
       <r>   -0.7762    0.0000 </r>
       <r>    1.8526    0.0000 </r>
       <r>    1.9571    0.0000 </r>
       <r>    2.2642    0.0000 </r>
       <r>    2.5042    0.0000 </r>
       <r>    2.7722    0.0000 </r>
       <r>    3.2489    0.0000 </r>
       <r>    3.2868    0.0000 </r>
       <r>    3.7627    0.0000 </r>
      </set>
      <set comment="kpoint 17">
       <r>  -38.8643    1.0000 </r>
       <r>  -38.7339    1.0000 </r>
       <r>  -38.6990    1.0000 </r>
       <r>  -17.6753    1.0000 </r>
       <r>  -16.4856    1.0000 </r>
       <r>   -9.1761    1.0000 </r>
       <r>   -6.8534    1.0000 </r>
       <r>   -6.2933    1.0000 </r>
       <r>   -6.2392    1.0000 </r>
       <r>   -5.6826    1.0000 </r>
       <r>   -4.8626    1.0000 </r>
       <r>   -3.9317    1.0000 </r>
       <r>   -1.3056    0.0000 </r>
       <r>   -1.2972    0.0000 </r>
       <r>   -1.0647    0.0000 </r>
       <r>   -0.7375    0.0000 </r>
       <r>    1.8878    0.0000 </r>
       <r>    1.9887    0.0000 </r>
       <r>    2.2970    0.0000 </r>
       <r>    2.5364    0.0000 </r>
       <r>    2.8081    0.0000 </r>
       <r>    3.2807    0.0000 </r>
       <r>    3.3664    0.0000 </r>
       <r>    3.8033    0.0000 </r>
      </set>
      <set comment="kpoint 18">
       <r>  -38.8632    1.0000 </r>
       <r>  -38.7395    1.0000 </r>
       <r>  -38.7005    1.0000 </r>
       <r>  -17.6508    1.0000 </r>
       <r>  -16.4755    1.0000 </r>
       <r>   -9.1501    1.0000 </r>
       <r>   -6.8989    1.0000 </r>
       <r>   -6.3447    1.0000 </r>
       <r>   -6.2148    1.0000 </r>
       <r>   -5.7282    1.0000 </r>
       <r>   -4.8430    1.0000 </r>
       <r>   -3.9507    1.0000 </r>
       <r>   -1.3366    0.0000 </r>
       <r>   -1.3209    0.0000 </r>
       <r>   -1.0895    0.0000 </r>
       <r>   -0.6972    0.0000 </r>
       <r>    1.9245    0.0000 </r>
       <r>    2.0224    0.0000 </r>
       <r>    2.3318    0.0000 </r>
       <r>    2.5707    0.0000 </r>
       <r>    2.8455    0.0000 </r>
       <r>    3.3145    0.0000 </r>
       <r>    3.4474    0.0000 </r>
       <r>    3.8485    0.0000 </r>
      </set>
      <set comment="kpoint 19">
       <r>  -38.8621    1.0000 </r>
       <r>  -38.7452    1.0000 </r>
       <r>  -38.7020    1.0000 </r>
       <r>  -17.6249    1.0000 </r>
       <r>  -16.4649    1.0000 </r>
       <r>   -9.1232    1.0000 </r>
       <r>   -6.9453    1.0000 </r>
       <r>   -6.3955    1.0000 </r>
       <r>   -6.1894    1.0000 </r>
       <r>   -5.7763    1.0000 </r>
       <r>   -4.8252    1.0000 </r>
       <r>   -3.9717    1.0000 </r>
       <r>   -1.3751    0.0000 </r>
       <r>   -1.3347    0.0000 </r>
       <r>   -1.1148    0.0000 </r>
       <r>   -0.6553    0.0000 </r>
       <r>    1.9626    0.0000 </r>
       <r>    2.0579    0.0000 </r>
       <r>    2.3687    0.0000 </r>
       <r>    2.6070    0.0000 </r>
       <r>    2.8843    0.0000 </r>
       <r>    3.3503    0.0000 </r>
       <r>    3.5286    0.0000 </r>
       <r>    3.8990    0.0000 </r>
      </set>
      <set comment="kpoint 20">
       <r>  -38.8609    1.0000 </r>
       <r>  -38.7512    1.0000 </r>
       <r>  -38.7036    1.0000 </r>
       <r>  -17.5978    1.0000 </r>
       <r>  -16.4538    1.0000 </r>
       <r>   -9.0954    1.0000 </r>
       <r>   -6.9926    1.0000 </r>
       <r>   -6.4457    1.0000 </r>
       <r>   -6.1631    1.0000 </r>
       <r>   -5.8270    1.0000 </r>
       <r>   -4.8094    1.0000 </r>
       <r>   -3.9945    1.0000 </r>
       <r>   -1.4126    0.0000 </r>
       <r>   -1.3469    0.0000 </r>
       <r>   -1.1404    0.0000 </r>
       <r>   -0.6121    0.0000 </r>
       <r>    2.0022    0.0000 </r>
       <r>    2.0954    0.0000 </r>
       <r>    2.4076    0.0000 </r>
       <r>    2.6454    0.0000 </r>
       <r>    2.9248    0.0000 </r>
       <r>    3.3881    0.0000 </r>
       <r>    3.6085    0.0000 </r>
       <r>    3.9560    0.0000 </r>
      </set>
      <set comment="kpoint 21">
       <r>  -38.8596    1.0000 </r>
       <r>  -38.7574    1.0000 </r>
       <r>  -38.7053    1.0000 </r>
       <r>  -17.5694    1.0000 </r>
       <r>  -16.4421    1.0000 </r>
       <r>   -9.0669    1.0000 </r>
       <r>   -7.0404    1.0000 </r>
       <r>   -6.4952    1.0000 </r>
       <r>   -6.1360    1.0000 </r>
       <r>   -5.8801    1.0000 </r>
       <r>   -4.7954    1.0000 </r>
       <r>   -4.0191    1.0000 </r>
       <r>   -1.4489    0.0000 </r>
       <r>   -1.3573    0.0000 </r>
       <r>   -1.1662    0.0000 </r>
       <r>   -0.5678    0.0000 </r>
       <r>    2.0433    0.0000 </r>
       <r>    2.1349    0.0000 </r>
       <r>    2.4486    0.0000 </r>
       <r>    2.6858    0.0000 </r>
       <r>    2.9669    0.0000 </r>
       <r>    3.4279    0.0000 </r>
       <r>    3.6857    0.0000 </r>
       <r>    4.0203    0.0000 </r>
      </set>
      <set comment="kpoint 22">
       <r>  -38.8583    1.0000 </r>
       <r>  -38.7638    1.0000 </r>
       <r>  -38.7071    1.0000 </r>
       <r>  -17.5398    1.0000 </r>
       <r>  -16.4300    1.0000 </r>
       <r>   -9.0378    1.0000 </r>
       <r>   -7.0884    1.0000 </r>
       <r>   -6.5440    1.0000 </r>
       <r>   -6.1083    1.0000 </r>
       <r>   -5.9355    1.0000 </r>
       <r>   -4.7834    1.0000 </r>
       <r>   -4.0457    1.0000 </r>
       <r>   -1.4840    0.0000 </r>
       <r>   -1.3658    0.0000 </r>
       <r>   -1.1918    0.0000 </r>
       <r>   -0.5224    0.0000 </r>
       <r>    2.0859    0.0000 </r>
       <r>    2.1762    0.0000 </r>
       <r>    2.4916    0.0000 </r>
       <r>    2.7282    0.0000 </r>
       <r>    3.0107    0.0000 </r>
       <r>    3.4697    0.0000 </r>
       <r>    3.7592    0.0000 </r>
       <r>    4.0925    0.0000 </r>
      </set>
      <set comment="kpoint 23">
       <r>  -38.8570    1.0000 </r>
       <r>  -38.7704    1.0000 </r>
       <r>  -38.7090    1.0000 </r>
       <r>  -17.5090    1.0000 </r>
       <r>  -16.4174    1.0000 </r>
       <r>   -9.0084    1.0000 </r>
       <r>   -7.1365    1.0000 </r>
       <r>   -6.5920    1.0000 </r>
       <r>   -6.0800    1.0000 </r>
       <r>   -5.9930    1.0000 </r>
       <r>   -4.7731    1.0000 </r>
       <r>   -4.0740    1.0000 </r>
       <r>   -1.5178    0.0000 </r>
       <r>   -1.3722    0.0000 </r>
       <r>   -1.2170    0.0000 </r>
       <r>   -0.4761    0.0000 </r>
       <r>    2.1299    0.0000 </r>
       <r>    2.2193    0.0000 </r>
       <r>    2.5366    0.0000 </r>
       <r>    2.7727    0.0000 </r>
       <r>    3.0563    0.0000 </r>
       <r>    3.5134    0.0000 </r>
       <r>    3.8286    0.0000 </r>
       <r>    4.1724    0.0000 </r>
      </set>
      <set comment="kpoint 24">
       <r>  -38.8556    1.0000 </r>
       <r>  -38.7771    1.0000 </r>
       <r>  -38.7110    1.0000 </r>
       <r>  -17.4772    1.0000 </r>
       <r>  -16.4043    1.0000 </r>
       <r>   -8.9788    1.0000 </r>
       <r>   -7.1842    1.0000 </r>
       <r>   -6.6393    1.0000 </r>
       <r>   -6.0524    1.0000 </r>
       <r>   -6.0514    1.0000 </r>
       <r>   -4.7647    1.0000 </r>
       <r>   -4.1040    1.0000 </r>
       <r>   -1.5503    0.0000 </r>
       <r>   -1.3766    0.0000 </r>
       <r>   -1.2414    0.0000 </r>
       <r>   -0.4292    0.0000 </r>
       <r>    2.1754    0.0000 </r>
       <r>    2.2644    0.0000 </r>
       <r>    2.5837    0.0000 </r>
       <r>    2.8193    0.0000 </r>
       <r>    3.1036    0.0000 </r>
       <r>    3.5591    0.0000 </r>
       <r>    3.8944    0.0000 </r>
       <r>    4.2591    0.0000 </r>
      </set>
      <set comment="kpoint 25">
       <r>  -38.8541    1.0000 </r>
       <r>  -38.7839    1.0000 </r>
       <r>  -38.7131    1.0000 </r>
       <r>  -17.4442    1.0000 </r>
       <r>  -16.3908    1.0000 </r>
       <r>   -8.9492    1.0000 </r>
       <r>   -7.2314    1.0000 </r>
       <r>   -6.6858    1.0000 </r>
       <r>   -6.1135    1.0000 </r>
       <r>   -6.0227    1.0000 </r>
       <r>   -4.7581    1.0000 </r>
       <r>   -4.1357    1.0000 </r>
       <r>   -1.5815    0.0000 </r>
       <r>   -1.3788    0.0000 </r>
       <r>   -1.2649    0.0000 </r>
       <r>   -0.3817    0.0000 </r>
       <r>    2.2224    0.0000 </r>
       <r>    2.3113    0.0000 </r>
       <r>    2.6329    0.0000 </r>
       <r>    2.8678    0.0000 </r>
       <r>    3.1528    0.0000 </r>
       <r>    3.6068    0.0000 </r>
       <r>    3.9574    0.0000 </r>
       <r>    4.3511    0.0000 </r>
      </set>
      <set comment="kpoint 26">
       <r>  -38.8527    1.0000 </r>
       <r>  -38.7909    1.0000 </r>
       <r>  -38.7152    1.0000 </r>
       <r>  -17.4102    1.0000 </r>
       <r>  -16.3768    1.0000 </r>
       <r>   -8.9199    1.0000 </r>
       <r>   -7.2777    1.0000 </r>
       <r>   -6.7316    1.0000 </r>
       <r>   -6.1761    1.0000 </r>
       <r>   -5.9940    1.0000 </r>
       <r>   -4.7533    1.0000 </r>
       <r>   -4.1687    1.0000 </r>
       <r>   -1.6114    0.0000 </r>
       <r>   -1.3789    0.0000 </r>
       <r>   -1.2870    0.0000 </r>
       <r>   -0.3339    0.0000 </r>
       <r>    2.2709    0.0000 </r>
       <r>    2.3600    0.0000 </r>
       <r>    2.6840    0.0000 </r>
       <r>    2.9184    0.0000 </r>
       <r>    3.2038    0.0000 </r>
       <r>    3.6564    0.0000 </r>
       <r>    4.0185    0.0000 </r>
       <r>    4.4469    0.0000 </r>
      </set>
      <set comment="kpoint 27">
       <r>  -38.8512    1.0000 </r>
       <r>  -38.7980    1.0000 </r>
       <r>  -38.7174    1.0000 </r>
       <r>  -17.3752    1.0000 </r>
       <r>  -16.3624    1.0000 </r>
       <r>   -8.8911    1.0000 </r>
       <r>   -7.3228    1.0000 </r>
       <r>   -6.7767    1.0000 </r>
       <r>   -6.2398    1.0000 </r>
       <r>   -5.9657    1.0000 </r>
       <r>   -4.7503    1.0000 </r>
       <r>   -4.2030    1.0000 </r>
       <r>   -1.6402    0.0000 </r>
       <r>   -1.3769    0.0000 </r>
       <r>   -1.3075    0.0000 </r>
       <r>   -0.2859    0.0000 </r>
       <r>    2.3209    0.0000 </r>
       <r>    2.4104    0.0000 </r>
       <r>    2.7373    0.0000 </r>
       <r>    2.9710    0.0000 </r>
       <r>    3.2567    0.0000 </r>
       <r>    3.7080    0.0000 </r>
       <r>    4.0788    0.0000 </r>
       <r>    4.5449    0.0000 </r>
      </set>
      <set comment="kpoint 28">
       <r>  -38.8497    1.0000 </r>
       <r>  -38.8051    1.0000 </r>
       <r>  -38.7198    1.0000 </r>
       <r>  -17.3393    1.0000 </r>
       <r>  -16.3477    1.0000 </r>
       <r>   -8.8632    1.0000 </r>
       <r>   -7.3663    1.0000 </r>
       <r>   -6.8213    1.0000 </r>
       <r>   -6.3045    1.0000 </r>
       <r>   -5.9379    1.0000 </r>
       <r>   -4.7489    1.0000 </r>
       <r>   -4.2382    1.0000 </r>
       <r>   -1.6678    0.0000 </r>
       <r>   -1.3728    0.0000 </r>
       <r>   -1.3262    0.0000 </r>
       <r>   -0.2379    0.0000 </r>
       <r>    2.3723    0.0000 </r>
       <r>    2.4627    0.0000 </r>
       <r>    2.7926    0.0000 </r>
       <r>    3.0257    0.0000 </r>
       <r>    3.3114    0.0000 </r>
       <r>    3.7614    0.0000 </r>
       <r>    4.1388    0.0000 </r>
       <r>    4.6436    0.0000 </r>
      </set>
      <set comment="kpoint 29">
       <r>  -38.8481    1.0000 </r>
       <r>  -38.8123    1.0000 </r>
       <r>  -38.7222    1.0000 </r>
       <r>  -17.3025    1.0000 </r>
       <r>  -16.3326    1.0000 </r>
       <r>   -8.8363    1.0000 </r>
       <r>   -7.4079    1.0000 </r>
       <r>   -6.8654    1.0000 </r>
       <r>   -6.3696    1.0000 </r>
       <r>   -5.9110    1.0000 </r>
       <r>   -4.7493    1.0000 </r>
       <r>   -4.2741    1.0000 </r>
       <r>   -1.6944    0.0000 </r>
       <r>   -1.3666    0.0000 </r>
       <r>   -1.3428    0.0000 </r>
       <r>   -0.1900    0.0000 </r>
       <r>    2.4252    0.0000 </r>
       <r>    2.5167    0.0000 </r>
       <r>    2.8499    0.0000 </r>
       <r>    3.0823    0.0000 </r>
       <r>    3.3680    0.0000 </r>
       <r>    3.8168    0.0000 </r>
       <r>    4.1991    0.0000 </r>
       <r>    4.7417    0.0000 </r>
      </set>
      <set comment="kpoint 30">
       <r>  -38.8466    1.0000 </r>
       <r>  -38.8196    1.0000 </r>
       <r>  -38.7247    1.0000 </r>
       <r>  -17.2648    1.0000 </r>
       <r>  -16.3171    1.0000 </r>
       <r>   -8.8109    1.0000 </r>
       <r>   -7.4472    1.0000 </r>
       <r>   -6.9093    1.0000 </r>
       <r>   -6.4348    1.0000 </r>
       <r>   -5.8853    1.0000 </r>
       <r>   -4.7513    1.0000 </r>
       <r>   -4.3103    1.0000 </r>
       <r>   -1.7199    0.0000 </r>
       <r>   -1.3584    0.0000 </r>
       <r>   -1.3571    0.0000 </r>
       <r>   -0.1425    0.0000 </r>
       <r>    2.4795    0.0000 </r>
       <r>    2.5724    0.0000 </r>
       <r>    2.9093    0.0000 </r>
       <r>    3.1410    0.0000 </r>
       <r>    3.4265    0.0000 </r>
       <r>    3.8740    0.0000 </r>
       <r>    4.2600    0.0000 </r>
       <r>    4.8373    0.0000 </r>
      </set>
      <set comment="kpoint 31">
       <r>  -38.8450    1.0000 </r>
       <r>  -38.8269    1.0000 </r>
       <r>  -38.7273    1.0000 </r>
       <r>  -17.2264    1.0000 </r>
       <r>  -16.3013    1.0000 </r>
       <r>   -8.7873    1.0000 </r>
       <r>   -7.4838    1.0000 </r>
       <r>   -6.9533    1.0000 </r>
       <r>   -6.4996    1.0000 </r>
       <r>   -5.8612    1.0000 </r>
       <r>   -4.7550    1.0000 </r>
       <r>   -4.3465    1.0000 </r>
       <r>   -1.7444    0.0000 </r>
       <r>   -1.3692    0.0000 </r>
       <r>   -1.3483    0.0000 </r>
       <r>   -0.0954    0.0000 </r>
       <r>    2.5352    0.0000 </r>
       <r>    2.6298    0.0000 </r>
       <r>    2.9708    0.0000 </r>
       <r>    3.2016    0.0000 </r>
       <r>    3.4868    0.0000 </r>
       <r>    3.9331    0.0000 </r>
       <r>    4.3218    0.0000 </r>
       <r>    4.9286    0.0000 </r>
      </set>
      <set comment="kpoint 32">
       <r>  -38.8434    1.0000 </r>
       <r>  -38.8341    1.0000 </r>
       <r>  -38.7299    1.0000 </r>
       <r>  -17.1872    1.0000 </r>
       <r>  -16.2852    1.0000 </r>
       <r>   -8.7658    1.0000 </r>
       <r>   -7.5173    1.0000 </r>
       <r>   -6.9977    1.0000 </r>
       <r>   -6.5635    1.0000 </r>
       <r>   -5.8390    1.0000 </r>
       <r>   -4.7603    1.0000 </r>
       <r>   -4.3823    1.0000 </r>
       <r>   -1.7676    0.0000 </r>
       <r>   -1.3788    0.0000 </r>
       <r>   -1.3362    0.0000 </r>
       <r>   -0.0490    0.0000 </r>
       <r>    2.5923    0.0000 </r>
       <r>    2.6888    0.0000 </r>
       <r>    3.0343    0.0000 </r>
       <r>    3.2643    0.0000 </r>
       <r>    3.5491    0.0000 </r>
       <r>    3.9941    0.0000 </r>
       <r>    4.3848    0.0000 </r>
       <r>    5.0137    0.0000 </r>
      </set>
      <set comment="kpoint 33">
       <r>  -38.8417    1.0000 </r>
       <r>  -38.8414    1.0000 </r>
       <r>  -38.7327    1.0000 </r>
       <r>  -17.1473    1.0000 </r>
       <r>  -16.2688    1.0000 </r>
       <r>   -8.7470    1.0000 </r>
       <r>   -7.5474    1.0000 </r>
       <r>   -7.0429    1.0000 </r>
       <r>   -6.6257    1.0000 </r>
       <r>   -5.8193    1.0000 </r>
       <r>   -4.7673    1.0000 </r>
       <r>   -4.4171    1.0000 </r>
       <r>   -1.7896    0.0000 </r>
       <r>   -1.3861    0.0000 </r>
       <r>   -1.3225    0.0000 </r>
       <r>   -0.0034    0.0000 </r>
       <r>    2.6508    0.0000 </r>
       <r>    2.7495    0.0000 </r>
       <r>    3.0998    0.0000 </r>
       <r>    3.3290    0.0000 </r>
       <r>    3.6133    0.0000 </r>
       <r>    4.0569    0.0000 </r>
       <r>    4.4489    0.0000 </r>
       <r>    5.0900    0.0000 </r>
      </set>
      <set comment="kpoint 34">
       <r>  -38.8486    1.0000 </r>
       <r>  -38.8401    1.0000 </r>
       <r>  -38.7356    1.0000 </r>
       <r>  -17.1068    1.0000 </r>
       <r>  -16.2521    1.0000 </r>
       <r>   -8.7311    1.0000 </r>
       <r>   -7.5736    1.0000 </r>
       <r>   -7.0895    1.0000 </r>
       <r>   -6.6856    1.0000 </r>
       <r>   -5.8025    1.0000 </r>
       <r>   -4.7758    1.0000 </r>
       <r>   -4.4506    1.0000 </r>
       <r>   -1.8100    0.0000 </r>
       <r>   -1.3912    0.0000 </r>
       <r>   -1.3070    0.0000 </r>
       <r>    0.0412    0.0000 </r>
       <r>    2.7106    0.0000 </r>
       <r>    2.8117    0.0000 </r>
       <r>    3.1675    0.0000 </r>
       <r>    3.3956    0.0000 </r>
       <r>    3.6793    0.0000 </r>
       <r>    4.1215    0.0000 </r>
       <r>    4.5144    0.0000 </r>
       <r>    5.1512    0.0000 </r>
      </set>
      <set comment="kpoint 35">
       <r>  -38.8558    1.0000 </r>
       <r>  -38.8385    1.0000 </r>
       <r>  -38.7385    1.0000 </r>
       <r>  -17.0657    1.0000 </r>
       <r>  -16.2352    1.0000 </r>
       <r>   -8.7184    1.0000 </r>
       <r>   -7.5957    1.0000 </r>
       <r>   -7.1380    1.0000 </r>
       <r>   -6.7423    1.0000 </r>
       <r>   -5.7891    1.0000 </r>
       <r>   -4.7859    1.0000 </r>
       <r>   -4.4823    1.0000 </r>
       <r>   -1.8287    0.0000 </r>
       <r>   -1.3942    0.0000 </r>
       <r>   -1.2899    0.0000 </r>
       <r>    0.0848    0.0000 </r>
       <r>    2.7717    0.0000 </r>
       <r>    2.8754    0.0000 </r>
       <r>    3.2372    0.0000 </r>
       <r>    3.4643    0.0000 </r>
       <r>    3.7473    0.0000 </r>
       <r>    4.1879    0.0000 </r>
       <r>    4.5812    0.0000 </r>
       <r>    5.1955    0.0000 </r>
      </set>
      <set comment="kpoint 36">
       <r>  -38.8629    1.0000 </r>
       <r>  -38.8368    1.0000 </r>
       <r>  -38.7415    1.0000 </r>
       <r>  -17.0242    1.0000 </r>
       <r>  -16.2181    1.0000 </r>
       <r>   -8.7092    1.0000 </r>
       <r>   -7.6134    1.0000 </r>
       <r>   -7.1889    1.0000 </r>
       <r>   -6.7953    1.0000 </r>
       <r>   -5.7794    1.0000 </r>
       <r>   -4.7975    1.0000 </r>
       <r>   -4.5116    1.0000 </r>
       <r>   -1.8454    0.0000 </r>
       <r>   -1.3953    0.0000 </r>
       <r>   -1.2713    0.0000 </r>
       <r>    0.1272    0.0000 </r>
       <r>    2.8340    0.0000 </r>
       <r>    2.9407    0.0000 </r>
       <r>    3.3089    0.0000 </r>
       <r>    3.5349    0.0000 </r>
       <r>    3.8171    0.0000 </r>
       <r>    4.2561    0.0000 </r>
       <r>    4.6493    0.0000 </r>
       <r>    5.2185    0.0000 </r>
      </set>
      <set comment="kpoint 37">
       <r>  -38.8700    1.0000 </r>
       <r>  -38.8352    1.0000 </r>
       <r>  -38.7446    1.0000 </r>
       <r>  -16.9822    1.0000 </r>
       <r>  -16.2008    1.0000 </r>
       <r>   -8.7036    1.0000 </r>
       <r>   -7.6265    1.0000 </r>
       <r>   -7.2426    1.0000 </r>
       <r>   -6.8439    1.0000 </r>
       <r>   -5.7741    1.0000 </r>
       <r>   -4.8106    1.0000 </r>
       <r>   -4.5381    1.0000 </r>
       <r>   -1.8599    0.0000 </r>
       <r>   -1.3946    0.0000 </r>
       <r>   -1.2513    0.0000 </r>
       <r>    0.1682    0.0000 </r>
       <r>    2.8975    0.0000 </r>
       <r>    3.0073    0.0000 </r>
       <r>    3.3828    0.0000 </r>
       <r>    3.6075    0.0000 </r>
       <r>    3.8888    0.0000 </r>
       <r>    4.3260    0.0000 </r>
       <r>    4.7188    0.0000 </r>
       <r>    5.2199    0.0000 </r>
      </set>
      <set comment="kpoint 38">
       <r>  -38.8769    1.0000 </r>
       <r>  -38.8335    1.0000 </r>
       <r>  -38.7478    1.0000 </r>
       <r>  -16.9399    1.0000 </r>
       <r>  -16.1833    1.0000 </r>
       <r>   -8.7017    1.0000 </r>
       <r>   -7.6352    1.0000 </r>
       <r>   -7.2994    1.0000 </r>
       <r>   -6.8878    1.0000 </r>
       <r>   -5.7735    1.0000 </r>
       <r>   -4.8252    1.0000 </r>
       <r>   -4.5615    1.0000 </r>
       <r>   -1.8719    0.0000 </r>
       <r>   -1.3925    0.0000 </r>
       <r>   -1.2301    0.0000 </r>
       <r>    0.2078    0.0000 </r>
       <r>    2.9620    0.0000 </r>
       <r>    3.0754    0.0000 </r>
       <r>    3.4586    0.0000 </r>
       <r>    3.6821    0.0000 </r>
       <r>    3.9624    0.0000 </r>
       <r>    4.3976    0.0000 </r>
       <r>    4.7894    0.0000 </r>
       <r>    5.2027    0.0000 </r>
      </set>
      <set comment="kpoint 39">
       <r>  -38.8837    1.0000 </r>
       <r>  -38.8319    1.0000 </r>
       <r>  -38.7510    1.0000 </r>
       <r>  -16.8972    1.0000 </r>
       <r>  -16.1657    1.0000 </r>
       <r>   -8.7033    1.0000 </r>
       <r>   -7.6394    1.0000 </r>
       <r>   -7.3590    1.0000 </r>
       <r>   -6.9268    1.0000 </r>
       <r>   -5.7778    1.0000 </r>
       <r>   -4.8413    1.0000 </r>
       <r>   -4.5814    1.0000 </r>
       <r>   -1.8811    0.0000 </r>
       <r>   -1.3891    0.0000 </r>
       <r>   -1.2078    0.0000 </r>
       <r>    0.2459    0.0000 </r>
       <r>    3.0276    0.0000 </r>
       <r>    3.1448    0.0000 </r>
       <r>    3.5366    0.0000 </r>
       <r>    3.7586    0.0000 </r>
       <r>    4.0378    0.0000 </r>
       <r>    4.4709    0.0000 </r>
       <r>    4.8610    0.0000 </r>
       <r>    5.1718    0.0000 </r>
      </set>
      <set comment="kpoint 40">
       <r>  -38.8904    1.0000 </r>
       <r>  -38.8303    1.0000 </r>
       <r>  -38.7544    1.0000 </r>
       <r>  -16.8544    1.0000 </r>
       <r>  -16.1480    1.0000 </r>
       <r>   -8.7083    1.0000 </r>
       <r>   -7.6396    1.0000 </r>
       <r>   -7.4213    1.0000 </r>
       <r>   -6.9611    1.0000 </r>
       <r>   -5.7874    1.0000 </r>
       <r>   -4.8588    1.0000 </r>
       <r>   -4.5975    1.0000 </r>
       <r>   -1.8874    0.0000 </r>
       <r>   -1.3847    0.0000 </r>
       <r>   -1.1844    0.0000 </r>
       <r>    0.2824    0.0000 </r>
       <r>    3.0941    0.0000 </r>
       <r>    3.2155    0.0000 </r>
       <r>    3.6166    0.0000 </r>
       <r>    3.8371    0.0000 </r>
       <r>    4.1151    0.0000 </r>
       <r>    4.5457    0.0000 </r>
       <r>    4.9322    0.0000 </r>
       <r>    5.1326    0.0000 </r>
      </set>
      <set comment="kpoint 41">
       <r>  -38.8969    1.0000 </r>
       <r>  -38.8287    1.0000 </r>
       <r>  -38.7578    1.0000 </r>
       <r>  -16.8114    1.0000 </r>
       <r>  -16.1302    1.0000 </r>
       <r>   -8.7162    1.0000 </r>
       <r>   -7.6360    1.0000 </r>
       <r>   -7.4858    1.0000 </r>
       <r>   -6.9910    1.0000 </r>
       <r>   -5.8021    1.0000 </r>
       <r>   -4.8777    1.0000 </r>
       <r>   -4.6098    1.0000 </r>
       <r>   -1.8904    0.0000 </r>
       <r>   -1.3795    0.0000 </r>
       <r>   -1.1601    0.0000 </r>
       <r>    0.3171    0.0000 </r>
       <r>    3.1614    0.0000 </r>
       <r>    3.2875    0.0000 </r>
       <r>    3.6986    0.0000 </r>
       <r>    3.9176    0.0000 </r>
       <r>    4.1942    0.0000 </r>
       <r>    4.6222    0.0000 </r>
       <r>    4.9965    0.0000 </r>
       <r>    5.0946    0.0000 </r>
      </set>
      <set comment="kpoint 42">
       <r>  -38.9032    1.0000 </r>
       <r>  -38.8271    1.0000 </r>
       <r>  -38.7613    1.0000 </r>
       <r>  -16.7683    1.0000 </r>
       <r>  -16.1124    1.0000 </r>
       <r>   -8.7267    1.0000 </r>
       <r>   -7.6291    1.0000 </r>
       <r>   -7.5521    1.0000 </r>
       <r>   -7.0168    1.0000 </r>
       <r>   -5.8221    1.0000 </r>
       <r>   -4.8979    1.0000 </r>
       <r>   -4.6184    1.0000 </r>
       <r>   -1.8901    0.0000 </r>
       <r>   -1.3738    0.0000 </r>
       <r>   -1.1352    0.0000 </r>
[...]
       <r>    -4.5587     0.8027    11.1713 </r>
       <r>    -4.3858     0.9490    11.3354 </r>
       <r>    -4.2128     0.8701    11.4859 </r>
       <r>    -4.0399     0.9423    11.6489 </r>
       <r>    -3.8669     1.1847    11.8538 </r>
       <r>    -3.6940     0.8452    12.0000 </r>
       <r>    -3.5210     0.0001    12.0000 </r>
       <r>    -3.3480     0.0000    12.0000 </r>
       <r>    -3.1751     0.0000    12.0000 </r>
       <r>    -3.0021     0.0000    12.0000 </r>
       <r>    -2.8292     0.0000    12.0000 </r>
       <r>    -2.6562     0.0000    12.0000 </r>
       <r>    -2.4833     0.0000    12.0000 </r>
       <r>    -2.3103     0.0001    12.0000 </r>
       <r>    -2.1374     0.3945    12.0682 </r>
       <r>    -1.9644     0.4643    12.1486 </r>
       <r>    -1.7915     0.7889    12.2850 </r>
       <r>    -1.6185     2.2340    12.6714 </r>
       <r>    -1.4455     1.3187    12.8995 </r>
       <r>    -1.2726     2.0140    13.2478 </r>
       <r>    -1.0996     2.4544    13.6723 </r>
       <r>    -0.9267     2.3006    14.0702 </r>
       <r>    -0.7537     2.0754    14.4291 </r>
       <r>    -0.5808     1.5193    14.6919 </r>
       <r>    -0.4078     0.9795    14.8613 </r>
       <r>    -0.2349     0.9737    15.0297 </r>
       <r>    -0.0619     0.5766    15.1294 </r>
       <r>     0.1110     1.0866    15.3174 </r>
       <r>     0.2840     0.7039    15.4391 </r>
       <r>     0.4570     1.2374    15.6531 </r>
       <r>     0.6299     0.5293    15.7447 </r>
       <r>     0.8029     0.5127    15.8334 </r>
       <r>     0.9758     0.7509    15.9632 </r>
       <r>     1.1488     0.2125    16.0000 </r>
       <r>     1.3217     0.0000    16.0000 </r>
       <r>     1.4947     0.0086    16.0015 </r>
       <r>     1.6676     0.4750    16.0836 </r>
       <r>     1.8406     0.8666    16.2335 </r>
       <r>     2.0135     0.6736    16.3500 </r>
       <r>     2.1865     1.0009    16.5231 </r>
       <r>     2.3595     1.5536    16.7918 </r>
       <r>     2.5324     1.8168    17.1061 </r>
       <r>     2.7054     1.4932    17.3643 </r>
       <r>     2.8783     1.5561    17.6335 </r>
       <r>     3.0513     1.5374    17.8994 </r>
       <r>     3.2242     1.6189    18.1794 </r>
       <r>     3.3972     1.7669    18.4850 </r>
       <r>     3.5701     1.5523    18.7534 </r>
       <r>     3.7431     1.3292    18.9833 </r>
       <r>     3.9160     1.6673    19.2717 </r>
       <r>     4.0890     1.5909    19.5468 </r>
       <r>     4.2620     1.5564    19.8160 </r>
       <r>     4.4349     1.4848    20.0728 </r>
       <r>     4.6079     1.6704    20.3617 </r>
       <r>     4.7808     1.2520    20.5783 </r>
       <r>     4.9538     1.2310    20.7912 </r>
       <r>     5.1267     1.3722    21.0285 </r>
       <r>     5.2997     1.6935    21.3214 </r>
       <r>     5.4726     1.0427    21.5018 </r>
       <r>     5.6456     1.1115    21.6940 </r>
       <r>     5.8185     1.4148    21.9387 </r>
       <r>     5.9915     1.3196    22.1669 </r>
       <r>     6.1645     0.8574    22.3152 </r>
       <r>     6.3374     0.6371    22.4254 </r>
       <r>     6.5104     1.3150    22.6528 </r>
       <r>     6.6833     1.3053    22.8786 </r>
       <r>     6.8563     1.1704    23.0810 </r>
       <r>     7.0292     1.2837    23.3030 </r>
       <r>     7.2022     0.9072    23.4599 </r>
       <r>     7.3751     0.6698    23.5758 </r>
       <r>     7.5481     0.4434    23.6525 </r>
       <r>     7.7210     0.5369    23.7453 </r>
       <r>     7.8940     0.7482    23.8747 </r>
       <r>     8.0669     0.5509    23.9700 </r>
       <r>     8.2399     0.1733    24.0000 </r>
       <r>     8.4129     0.0000    24.0000 </r>
       <r>     8.5858     0.0000    24.0000 </r>
       <r>     8.7588     0.0000    24.0000 </r>
       <r>     8.9317     0.0000    24.0000 </r>
       <r>     9.1047     0.0000    24.0000 </r>
       <r>     9.2776     0.0000    24.0000 </r>
       <r>     9.4506     0.0000    24.0000 </r>
       <r>     9.6235     0.0000    24.0000 </r>
       <r>     9.7965     0.0000    24.0000 </r>
       <r>     9.9694     0.0000    24.0000 </r>
       <r>    10.1424     0.0000    24.0000 </r>
       <r>    10.3154     0.0000    24.0000 </r>
       <r>    10.4883     0.0000    24.0000 </r>
      </set>
      <set comment="spin 2">
       <r>   -41.3980     0.0000     0.0000 </r>
       <r>   -41.2251     0.0000     0.0000 </r>
       <r>   -41.0521     0.0000     0.0000 </r>
       <r>   -40.8792     0.0000     0.0000 </r>
       <r>   -40.7062     0.0000     0.0000 </r>
       <r>   -40.5333     0.0000     0.0000 </r>
       <r>   -40.3603     0.0000     0.0000 </r>
       <r>   -40.1873     0.0000     0.0000 </r>
       <r>   -40.0144     0.0000     0.0000 </r>
       <r>   -39.8414     0.0000     0.0000 </r>
       <r>   -39.6685     0.0000     0.0000 </r>
       <r>   -39.4955     0.0000     0.0000 </r>
       <r>   -39.3226     0.0000     0.0000 </r>
       <r>   -39.1496     0.0006     0.0001 </r>
       <r>   -38.9767     2.2434     0.3881 </r>
       <r>   -38.8037     7.9149     1.7570 </r>
       <r>   -38.6308     7.1145     2.9875 </r>
       <r>   -38.4578     0.0721     3.0000 </r>
       <r>   -38.2849     0.0000     3.0000 </r>
       <r>   -38.1119     0.0000     3.0000 </r>
       <r>   -37.9389     0.0000     3.0000 </r>
       <r>   -37.7660     0.0000     3.0000 </r>
       <r>   -37.5930     0.0000     3.0000 </r>
       <r>   -37.4201     0.0000     3.0000 </r>
       <r>   -37.2471     0.0000     3.0000 </r>
       <r>   -37.0742     0.0000     3.0000 </r>
       <r>   -36.9012     0.0000     3.0000 </r>
       <r>   -36.7283     0.0000     3.0000 </r>
       <r>   -36.5553     0.0000     3.0000 </r>
       <r>   -36.3824     0.0000     3.0000 </r>
       <r>   -36.2094     0.0000     3.0000 </r>
       <r>   -36.0364     0.0000     3.0000 </r>
       <r>   -35.8635     0.0000     3.0000 </r>
       <r>   -35.6905     0.0000     3.0000 </r>
       <r>   -35.5176     0.0000     3.0000 </r>
       <r>   -35.3446     0.0000     3.0000 </r>
       <r>   -35.1717     0.0000     3.0000 </r>
       <r>   -34.9987     0.0000     3.0000 </r>
       <r>   -34.8258     0.0000     3.0000 </r>
       <r>   -34.6528     0.0000     3.0000 </r>
       <r>   -34.4799     0.0000     3.0000 </r>
       <r>   -34.3069     0.0000     3.0000 </r>
       <r>   -34.1339     0.0000     3.0000 </r>
       <r>   -33.9610     0.0000     3.0000 </r>
       <r>   -33.7880     0.0000     3.0000 </r>
       <r>   -33.6151     0.0000     3.0000 </r>
       <r>   -33.4421     0.0000     3.0000 </r>
       <r>   -33.2692     0.0000     3.0000 </r>
       <r>   -33.0962     0.0000     3.0000 </r>
       <r>   -32.9233     0.0000     3.0000 </r>
       <r>   -32.7503     0.0000     3.0000 </r>
       <r>   -32.5774     0.0000     3.0000 </r>
       <r>   -32.4044     0.0000     3.0000 </r>
       <r>   -32.2314     0.0000     3.0000 </r>
       <r>   -32.0585     0.0000     3.0000 </r>
       <r>   -31.8855     0.0000     3.0000 </r>
       <r>   -31.7126     0.0000     3.0000 </r>
       <r>   -31.5396     0.0000     3.0000 </r>
       <r>   -31.3667     0.0000     3.0000 </r>
       <r>   -31.1937     0.0000     3.0000 </r>
       <r>   -31.0208     0.0000     3.0000 </r>
       <r>   -30.8478     0.0000     3.0000 </r>
       <r>   -30.6749     0.0000     3.0000 </r>
       <r>   -30.5019     0.0000     3.0000 </r>
       <r>   -30.3289     0.0000     3.0000 </r>
       <r>   -30.1560     0.0000     3.0000 </r>
       <r>   -29.9830     0.0000     3.0000 </r>
       <r>   -29.8101     0.0000     3.0000 </r>
       <r>   -29.6371     0.0000     3.0000 </r>
       <r>   -29.4642     0.0000     3.0000 </r>
       <r>   -29.2912     0.0000     3.0000 </r>
       <r>   -29.1183     0.0000     3.0000 </r>
       <r>   -28.9453     0.0000     3.0000 </r>
       <r>   -28.7724     0.0000     3.0000 </r>
       <r>   -28.5994     0.0000     3.0000 </r>
       <r>   -28.4264     0.0000     3.0000 </r>
       <r>   -28.2535     0.0000     3.0000 </r>
       <r>   -28.0805     0.0000     3.0000 </r>
       <r>   -27.9076     0.0000     3.0000 </r>
       <r>   -27.7346     0.0000     3.0000 </r>
       <r>   -27.5617     0.0000     3.0000 </r>
       <r>   -27.3887     0.0000     3.0000 </r>
       <r>   -27.2158     0.0000     3.0000 </r>
       <r>   -27.0428     0.0000     3.0000 </r>
       <r>   -26.8699     0.0000     3.0000 </r>
       <r>   -26.6969     0.0000     3.0000 </r>
       <r>   -26.5239     0.0000     3.0000 </r>
       <r>   -26.3510     0.0000     3.0000 </r>
       <r>   -26.1780     0.0000     3.0000 </r>
       <r>   -26.0051     0.0000     3.0000 </r>
       <r>   -25.8321     0.0000     3.0000 </r>
       <r>   -25.6592     0.0000     3.0000 </r>
       <r>   -25.4862     0.0000     3.0000 </r>
       <r>   -25.3133     0.0000     3.0000 </r>
       <r>   -25.1403     0.0000     3.0000 </r>
       <r>   -24.9674     0.0000     3.0000 </r>
       <r>   -24.7944     0.0000     3.0000 </r>
       <r>   -24.6214     0.0000     3.0000 </r>
       <r>   -24.4485     0.0000     3.0000 </r>
       <r>   -24.2755     0.0000     3.0000 </r>
       <r>   -24.1026     0.0000     3.0000 </r>
       <r>   -23.9296     0.0000     3.0000 </r>
       <r>   -23.7567     0.0000     3.0000 </r>
       <r>   -23.5837     0.0000     3.0000 </r>
       <r>   -23.4108     0.0000     3.0000 </r>
       <r>   -23.2378     0.0000     3.0000 </r>
       <r>   -23.0649     0.0000     3.0000 </r>
       <r>   -22.8919     0.0000     3.0000 </r>
       <r>   -22.7189     0.0000     3.0000 </r>
       <r>   -22.5460     0.0000     3.0000 </r>
       <r>   -22.3730     0.0000     3.0000 </r>
       <r>   -22.2001     0.0000     3.0000 </r>
       <r>   -22.0271     0.0000     3.0000 </r>
       <r>   -21.8542     0.0000     3.0000 </r>
       <r>   -21.6812     0.0000     3.0000 </r>
       <r>   -21.5083     0.0000     3.0000 </r>
       <r>   -21.3353     0.0000     3.0000 </r>
       <r>   -21.1624     0.0000     3.0000 </r>
       <r>   -20.9894     0.0000     3.0000 </r>
       <r>   -20.8164     0.0000     3.0000 </r>
       <r>   -20.6435     0.0000     3.0000 </r>
       <r>   -20.4705     0.0000     3.0000 </r>
       <r>   -20.2976     0.0000     3.0000 </r>
       <r>   -20.1246     0.0000     3.0000 </r>
       <r>   -19.9517     0.0000     3.0000 </r>
       <r>   -19.7787     0.0000     3.0000 </r>
       <r>   -19.6058     0.0000     3.0000 </r>
       <r>   -19.4328     0.0000     3.0000 </r>
       <r>   -19.2599     0.0000     3.0000 </r>
       <r>   -19.0869     0.0000     3.0000 </r>
       <r>   -18.9139     0.0000     3.0000 </r>
       <r>   -18.7410     0.0000     3.0000 </r>
       <r>   -18.5680     0.0000     3.0000 </r>
       <r>   -18.3951     0.0000     3.0000 </r>
       <r>   -18.2221     0.0000     3.0000 </r>
       <r>   -18.0492     0.0000     3.0000 </r>
       <r>   -17.8762     0.1358     3.0235 </r>
       <r>   -17.7033     0.6519     3.1362 </r>
       <r>   -17.5303     0.3415     3.1953 </r>
       <r>   -17.3574     0.2703     3.2421 </r>
       <r>   -17.1844     0.2381     3.2832 </r>
       <r>   -17.0114     0.2211     3.3215 </r>
       <r>   -16.8385     0.2131     3.3583 </r>
       <r>   -16.6655     0.2129     3.3951 </r>
       <r>   -16.4926     1.0066     3.5692 </r>
       <r>   -16.3196     0.9701     3.7370 </r>
       <r>   -16.1467     0.8333     3.8811 </r>
       <r>   -15.9737     1.6138     4.1603 </r>
       <r>   -15.8008     2.5737     4.6054 </r>
       <r>   -15.6278     2.2445     4.9936 </r>
       <r>   -15.4549     0.0371     5.0000 </r>
       <r>   -15.2819     0.0000     5.0000 </r>
       <r>   -15.1090     0.0000     5.0000 </r>
       <r>   -14.9360     0.0000     5.0000 </r>
       <r>   -14.7630     0.0000     5.0000 </r>
       <r>   -14.5901     0.0000     5.0000 </r>
       <r>   -14.4171     0.0000     5.0000 </r>
       <r>   -14.2442     0.0000     5.0000 </r>
       <r>   -14.0712     0.0000     5.0000 </r>
       <r>   -13.8983     0.0000     5.0000 </r>
       <r>   -13.7253     0.0000     5.0000 </r>
       <r>   -13.5524     0.0000     5.0000 </r>
       <r>   -13.3794     0.0000     5.0000 </r>
       <r>   -13.2065     0.0000     5.0000 </r>
       <r>   -13.0335     0.0000     5.0000 </r>
       <r>   -12.8605     0.0000     5.0000 </r>
       <r>   -12.6876     0.0000     5.0000 </r>
       <r>   -12.5146     0.0000     5.0000 </r>
       <r>   -12.3417     0.0000     5.0000 </r>
       <r>   -12.1687     0.0000     5.0000 </r>
       <r>   -11.9958     0.0000     5.0000 </r>
       <r>   -11.8228     0.0000     5.0000 </r>
       <r>   -11.6499     0.0000     5.0000 </r>
       <r>   -11.4769     0.0000     5.0000 </r>
       <r>   -11.3040     0.0000     5.0000 </r>
       <r>   -11.1310     0.0000     5.0000 </r>
       <r>   -10.9580     0.0000     5.0000 </r>
       <r>   -10.7851     0.0000     5.0000 </r>
       <r>   -10.6121     0.0000     5.0000 </r>
       <r>   -10.4392     0.0000     5.0000 </r>
       <r>   -10.2662     0.0000     5.0000 </r>
       <r>   -10.0933     0.0000     5.0000 </r>
       <r>    -9.9203     0.0000     5.0000 </r>
       <r>    -9.7474     0.0000     5.0000 </r>
       <r>    -9.5744     0.0505     5.0087 </r>
       <r>    -9.4015     0.9454     5.1722 </r>
       <r>    -9.2285     1.0888     5.3605 </r>
       <r>    -9.0555     1.4609     5.6132 </r>
       <r>    -8.8826     1.3517     5.8470 </r>
       <r>    -8.7096     1.7463     6.1490 </r>
       <r>    -8.5367     1.2034     6.3572 </r>
       <r>    -8.3637     0.7791     6.4919 </r>
       <r>    -8.1908     0.2771     6.5398 </r>
       <r>    -8.0178     0.1764     6.5703 </r>
       <r>    -7.8449     0.7966     6.7081 </r>
       <r>    -7.6719     2.3942     7.1222 </r>
       <r>    -7.4990     1.0654     7.3065 </r>
       <r>    -7.3260     1.1309     7.5021 </r>
       <r>    -7.1530     0.7121     7.6252 </r>
       <r>    -6.9801     1.5569     7.8945 </r>
       <r>    -6.8071     2.2140     8.2774 </r>
       <r>    -6.6342     1.6000     8.5541 </r>
       <r>    -6.4612     1.0611     8.7377 </r>
       <r>    -6.2883     1.3672     8.9741 </r>
       <r>    -6.1153     0.8863     9.1274 </r>
       <r>    -5.9424     1.0645     9.3115 </r>
       <r>    -5.7694     1.6881     9.6035 </r>
       <r>    -5.5965     2.4442    10.0262 </r>
       <r>    -5.4235     1.1078    10.2178 </r>
       <r>    -5.2505     1.2028    10.4259 </r>
       <r>    -5.0776     0.8419    10.5715 </r>
       <r>    -4.9046     1.1431    10.7692 </r>
       <r>    -4.7317     1.5224    11.0325 </r>
       <r>    -4.5587     0.8027    11.1713 </r>
       <r>    -4.3858     0.9490    11.3354 </r>
       <r>    -4.2128     0.8701    11.4859 </r>
       <r>    -4.0399     0.9423    11.6489 </r>
       <r>    -3.8669     1.1847    11.8538 </r>
       <r>    -3.6940     0.8452    12.0000 </r>
       <r>    -3.5210     0.0001    12.0000 </r>
       <r>    -3.3480     0.0000    12.0000 </r>
       <r>    -3.1751     0.0000    12.0000 </r>
       <r>    -3.0021     0.0000    12.0000 </r>
       <r>    -2.8292     0.0000    12.0000 </r>
       <r>    -2.6562     0.0000    12.0000 </r>
       <r>    -2.4833     0.0000    12.0000 </r>
       <r>    -2.3103     0.0001    12.0000 </r>
       <r>    -2.1374     0.3945    12.0682 </r>
       <r>    -1.9644     0.4643    12.1486 </r>
       <r>    -1.7915     0.7889    12.2850 </r>
       <r>    -1.6185     2.2340    12.6714 </r>
       <r>    -1.4455     1.3187    12.8995 </r>
       <r>    -1.2726     2.0140    13.2478 </r>
       <r>    -1.0996     2.4544    13.6723 </r>
       <r>    -0.9267     2.3006    14.0702 </r>
       <r>    -0.7537     2.0754    14.4291 </r>
       <r>    -0.5808     1.5193    14.6919 </r>
       <r>    -0.4078     0.9795    14.8613 </r>
       <r>    -0.2349     0.9737    15.0297 </r>
       <r>    -0.0619     0.5766    15.1294 </r>
       <r>     0.1110     1.0866    15.3174 </r>
       <r>     0.2840     0.7039    15.4391 </r>
       <r>     0.4570     1.2374    15.6531 </r>
       <r>     0.6299     0.5293    15.7447 </r>
       <r>     0.8029     0.5127    15.8334 </r>
       <r>     0.9758     0.7509    15.9632 </r>
       <r>     1.1488     0.2125    16.0000 </r>
       <r>     1.3217     0.0000    16.0000 </r>
       <r>     1.4947     0.0087    16.0015 </r>
       <r>     1.6676     0.4759    16.0838 </r>
       <r>     1.8406     0.8672    16.2338 </r>
       <r>     2.0135     0.6710    16.3499 </r>
       <r>     2.1865     1.0014    16.5231 </r>
       <r>     2.3595     1.5529    16.7916 </r>
       <r>     2.5324     1.8181    17.1061 </r>
       <r>     2.7054     1.4933    17.3644 </r>
       <r>     2.8783     1.5560    17.6335 </r>
       <r>     3.0513     1.5388    17.8996 </r>
       <r>     3.2242     1.6181    18.1795 </r>
       <r>     3.3972     1.7668    18.4850 </r>
       <r>     3.5701     1.5528    18.7536 </r>
       <r>     3.7431     1.3289    18.9834 </r>
       <r>     3.9160     1.6672    19.2718 </r>
       <r>     4.0890     1.5908    19.5469 </r>
       <r>     4.2620     1.5563    19.8161 </r>
       <r>     4.4349     1.4850    20.0729 </r>
       <r>     4.6079     1.6706    20.3619 </r>
       <r>     4.7808     1.2516    20.5783 </r>
       <r>     4.9538     1.2310    20.7912 </r>
       <r>     5.1267     1.3724    21.0286 </r>
       <r>     5.2997     1.6934    21.3215 </r>
       <r>     5.4726     1.0428    21.5018 </r>
       <r>     5.6456     1.1111    21.6940 </r>
       <r>     5.8185     1.4147    21.9387 </r>
       <r>     5.9915     1.3198    22.1670 </r>
       <r>     6.1645     0.8573    22.3152 </r>
       <r>     6.3374     0.6378    22.4256 </r>
       <r>     6.5104     1.3149    22.6530 </r>
       <r>     6.6833     1.3050    22.8787 </r>
       <r>     6.8563     1.1708    23.0812 </r>
       <r>     7.0292     1.2836    23.3032 </r>
       <r>     7.2022     0.9073    23.4601 </r>
       <r>     7.3751     0.6695    23.5759 </r>
       <r>     7.5481     0.4434    23.6526 </r>
       <r>     7.7210     0.5370    23.7455 </r>
       <r>     7.8940     0.7477    23.8748 </r>
       <r>     8.0669     0.5521    23.9703 </r>
       <r>     8.2399     0.1718    24.0000 </r>
       <r>     8.4129     0.0000    24.0000 </r>
       <r>     8.5858     0.0000    24.0000 </r>
       <r>     8.7588     0.0000    24.0000 </r>
       <r>     8.9317     0.0000    24.0000 </r>
       <r>     9.1047     0.0000    24.0000 </r>
       <r>     9.2776     0.0000    24.0000 </r>
       <r>     9.4506     0.0000    24.0000 </r>
       <r>     9.6235     0.0000    24.0000 </r>
       <r>     9.7965     0.0000    24.0000 </r>
       <r>     9.9694     0.0000    24.0000 </r>
       <r>    10.1424     0.0000    24.0000 </r>
       <r>    10.3154     0.0000    24.0000 </r>
       <r>    10.4883     0.0000    24.0000 </r>
      </set>
     </set>
    </array>
   </total>
  </dos>
 </calculation>
 <structure name="finalpos" >
  <crystal>
   <varray name="basis" >
    <v>       1.59817141      -2.76811338       0.00000000 </v>
    <v>       1.59817141       2.76811338       0.00000000 </v>
    <v>       0.00000000       0.00000000      34.96267827 </v>
   </varray>
   <i name="volume">    309.34415938 </i>
   <varray name="rec_basis" >
    <v>       0.31285756      -0.18062844       0.00000000 </v>
    <v>       0.31285756       0.18062844       0.00000000 </v>
    <v>       0.00000000       0.00000000       0.02860193 </v>
   </varray>
  </crystal>
  <varray name="positions" >
   <v>       0.66666700       0.33333300       0.10664700 </v>
   <v>       0.33333300       0.66666700       0.06198962 </v>
   <v>       0.33333300       0.66666700       0.15130538 </v>
  </varray>
 </structure>
</modeling>
