    3    3    1    1
  0.1031147E+03  0.3196342E-09  0.3196342E-09  0.3496268E-08  0.5000000E-15
  1.000000000000000E-004
  CAR 
 MoS2 Band + SOC (HR, N=120)             
     24    360     96
 
  0.0000000E+00  0.0000000E+00  0.0000000E+00  0.2777778E-02
    1      -42.019843   1.000000
    2      -42.019820   1.000000
    3      -39.653103   1.000000
    4      -39.653072   1.000000
    5      -39.517083   1.000000
    6      -39.517040   1.000000
    7      -19.504865   1.000000
    8      -19.504828   1.000000
    9      -18.198642   1.000000
   10      -18.198593   1.000000
   11      -11.032822   1.000000
   12      -11.032815   1.000000
   13       -8.111140   1.000000
   14       -8.111124   1.000000
   15       -8.048102   1.000000
   16       -8.048088   1.000000
   17       -7.170905   1.000000
   18       -7.170844   1.000000
   19       -7.012042   1.000000
   20       -7.012033   1.000000
   21       -6.928159   1.000000
   22       -6.928151   1.000000
   23       -5.427026   1.000000
   24       -5.427024   1.000000
   25       -2.759237   0.000000
   26       -2.759234   0.000000
   27       -2.680808   0.000000
   28       -2.680805   0.000000
   29       -2.476614   0.000000
   30       -2.476607   0.000000
   31       -2.475979   0.000000
   32       -2.475973   0.000000
   33        0.288850   0.000000
   34        0.288891   0.000000
   35        0.885929   0.000000
   36        0.885961   0.000000
   37        1.768173   0.000000
   38        1.768205   0.000000
   39        2.328940   0.000000
   40        2.328944   0.000000
   41        2.427832   0.000000
   42        2.427851   0.000000
   43        2.954849   0.000000
   44        2.954864   0.000000
   45        3.452807   0.000000
   46        3.452819   0.000000
   47        3.571813   0.000000
   48        3.571844   0.000000
   49        3.900818   0.000000
   50        3.900833   0.000000
   51        4.469229   0.000000
   52        4.469247   0.000000
   53        4.964908   0.000000
   54        4.964930   0.000000
   55        5.443064   0.000000
   56        5.443072   0.000000
   57        5.513469   0.000000
   58        5.513476   0.000000
   59        5.772096   0.000000
   60        5.772116   0.000000
   61        6.284919   0.000000
   62        6.284934   0.000000
   63        7.301797   0.000000
   64        7.301813   0.000000
   65        7.409399   0.000000
   66        7.409415   0.000000
   67        7.543783   0.000000
   68        7.543795   0.000000
   69        7.556763   0.000000
   70        7.556775   0.000000
   71        8.246325   0.000000
   72        8.246334   0.000000
   73        9.330537   0.000000
   74        9.330556   0.000000
   75        9.940927   0.000000
   76        9.940945   0.000000
   77       10.861545   0.000000
   78       10.861554   0.000000
   79       10.964180   0.000000
   80       10.964198   0.000000
   81       10.973649   0.000000
   82       10.973666   0.000000
   83       11.069041   0.000000
   84       11.069058   0.000000
   85       11.069751   0.000000
   86       11.069769   0.000000
   87       11.545504   0.000000
   88       11.545520   0.000000
   89       11.600751   0.000000
   90       11.600819   0.000000
   91       11.712100   0.000000
   92       11.712118   0.000000
   93       13.330445   0.000000
   94       13.330454   0.000000
   95       13.912609   0.000000
   96       13.912620   0.000000
 
  0.2801118E-02  0.2801118E-02  0.0000000E+00  0.2777778E-02
    1      -42.019865   1.000000
    2      -42.019841   1.000000
    3      -39.653111   1.000000
    4      -39.653081   1.000000
    5      -39.517139   1.000000
    6      -39.517096   1.000000
    7      -19.504515   1.000000
    8      -19.504485   1.000000
    9      -18.198508   1.000000
   10      -18.198443   1.000000
   11      -11.032419   1.000000
   12      -11.032411   1.000000
   13       -8.111369   1.000000
   14       -8.111343   1.000000
   15       -8.048321   1.000000
   16       -8.048316   1.000000
   17       -7.176527   1.000000
   18       -7.176282   1.000000
   19       -7.009476   1.000000
   20       -7.009154   1.000000
   21       -6.926441   1.000000
   22       -6.926408   1.000000
   23       -5.427217   1.000000
   24       -5.427175   1.000000
   25       -2.759237   0.000000
   26       -2.759171   0.000000
   27       -2.680837   0.000000
   28       -2.680817   0.000000
   29       -2.477845   0.000000
   30       -2.477356   0.000000
   31       -2.476656   0.000000
   32       -2.476161   0.000000
   33        0.289561   0.000000
   34        0.289828   0.000000
   35        0.887203   0.000000
   36        0.887483   0.000000
   37        1.768647   0.000000
   38        1.768683   0.000000
   39        2.329408   0.000000
   40        2.329437   0.000000
   41        2.428279   0.000000
   42        2.428300   0.000000
   43        2.955308   0.000000
   44        2.955321   0.000000
   45        3.453267   0.000000
   46        3.453276   0.000000
   47        3.573559   0.000000
   48        3.573586   0.000000
   49        3.901267   0.000000
   50        3.901280   0.000000
   51        4.469672   0.000000
   52        4.469690   0.000000
   53        4.965204   0.000000
   54        4.965232   0.000000
   55        5.442951   0.000000
   56        5.442986   0.000000
   57        5.513341   0.000000
   58        5.513376   0.000000
   59        5.772526   0.000000
   60        5.772543   0.000000
   61        6.285724   0.000000
   62        6.285736   0.000000
   63        7.301889   0.000000
   64        7.302254   0.000000
   65        7.409322   0.000000
   66        7.409863   0.000000
   67        7.542011   0.000000
   68        7.542151   0.000000
   69        7.555435   0.000000
   70        7.555477   0.000000
   71        8.246402   0.000000
   72        8.246412   0.000000
   73        9.330887   0.000000
   74        9.330903   0.000000
   75        9.941129   0.000000
   76        9.941152   0.000000
   77       10.864655   0.000000
   78       10.864763   0.000000
   79       10.962019   0.000000
   80       10.963552   0.000000
   81       10.972612   0.000000
   82       10.972916   0.000000
   83       11.066688   0.000000
   84       11.067479   0.000000
   85       11.069229   0.000000
   86       11.070596   0.000000
   87       11.546801   0.000000
   88       11.546823   0.000000
   89       11.600759   0.000000
   90       11.600826   0.000000
   91       11.713115   0.000000
   92       11.713132   0.000000
   93       13.331474   0.000000
   94       13.331495   0.000000
   95       13.914083   0.000000
   96       13.914115   0.000000
 
  0.5602235E-02  0.5602235E-02  0.0000000E+00  0.2777778E-02
    1      -42.019932   1.000000
    2      -42.019908   1.000000
    3      -39.653137   1.000000
    4      -39.653108   1.000000
    5      -39.517308   1.000000
    6      -39.517266   1.000000
    7      -19.503477   1.000000
    8      -19.503442   1.000000
    9      -18.198091   1.000000
   10      -18.198007   1.000000
   11      -11.031212   1.000000
   12      -11.031196   1.000000
   13       -8.112141   1.000000
   14       -8.112046   1.000000
   15       -8.048956   1.000000
   16       -8.048889   1.000000
   17       -7.191713   1.000000
   18       -7.191269   1.000000
   19       -7.003440   1.000000
   20       -7.002810   1.000000
   21       -6.920901   1.000000
   22       -6.920609   1.000000
   23       -5.427754   1.000000
   24       -5.427669   1.000000
   25       -2.759289   0.000000
   26       -2.759042   0.000000
   27       -2.680926   0.000000
   28       -2.680745   0.000000
   29       -2.481333   0.000000
   30       -2.479618   0.000000
   31       -2.478640   0.000000
   32       -2.476940   0.000000
   33        0.291880   0.000000
   34        0.292433   0.000000
   35        0.891267   0.000000
   36        0.891806   0.000000
   37        1.770074   0.000000
   38        1.770115   0.000000
   39        2.330837   0.000000
   40        2.330893   0.000000
   41        2.429622   0.000000
   42        2.429646   0.000000
   43        2.956681   0.000000
   44        2.956693   0.000000
   45        3.454642   0.000000
   46        3.454651   0.000000
   47        3.578788   0.000000
   48        3.578813   0.000000
   49        3.902611   0.000000
   50        3.902623   0.000000
   51        4.471000   0.000000
   52        4.471018   0.000000
   53        4.966093   0.000000
   54        4.966127   0.000000
   55        5.442324   0.000000
   56        5.442545   0.000000
   57        5.513184   0.000000
   58        5.513408   0.000000
   59        5.773803   0.000000
   60        5.773831   0.000000
   61        6.288116   0.000000
   62        6.288135   0.000000
   63        7.302476   0.000000
   64        7.303239   0.000000
   65        7.409488   0.000000
   66        7.410663   0.000000
   67        7.534880   0.000000
   68        7.535256   0.000000
   69        7.553456   0.000000
   70        7.553626   0.000000
   71        8.246630   0.000000
   72        8.246652   0.000000
   73        9.331927   0.000000
   74        9.331951   0.000000
   75        9.941737   0.000000
   76        9.941769   0.000000
   77       10.873045   0.000000
   78       10.873430   0.000000
   79       10.955348   0.000000
   80       10.958730   0.000000
   81       10.972015   0.000000
   82       10.973145   0.000000
   83       11.061394   0.000000
   84       11.064605   0.000000
   85       11.066454   0.000000
   86       11.070722   0.000000
   87       11.550640   0.000000
   88       11.550675   0.000000
   89       11.600780   0.000000
   90       11.600847   0.000000
   91       11.716147   0.000000
   92       11.716179   0.000000
   93       13.334573   0.000000
   94       13.334607   0.000000
   95       13.918453   0.000000
   96       13.918505   0.000000
 
  0.8403353E-02  0.8403353E-02  0.0000000E+00  0.2777778E-02
    1      -42.020043   1.000000
    2      -42.020018   1.000000
    3      -39.653180   1.000000
    4      -39.653152   1.000000
    5      -39.517589   1.000000
    6      -39.517549   1.000000
    7      -19.501749   1.000000
    8      -19.501701   1.000000
    9      -18.197391   1.000000
   10      -18.197285   1.000000
   11      -11.029199   1.000000
   12      -11.029174   1.000000
   13       -8.113675   1.000000
   14       -8.113391   1.000000
   15       -8.049838   1.000000
   16       -8.049581   1.000000
   17       -7.213472   1.000000
   18       -7.212901   1.000000
   19       -6.997898   1.000000
   20       -6.996750   1.000000
   21       -6.910665   1.000000
   22       -6.909801   1.000000
   23       -5.428638   1.000000
   24       -5.428510   1.000000
   25       -2.759642   0.000000
   26       -2.758913   0.000000
   27       -2.680965   0.000000
   28       -2.680359   0.000000
   29       -2.486860   0.000000
   30       -2.484132   0.000000
   31       -2.481153   0.000000
   32       -2.478487   0.000000
   33        0.295812   0.000000
   34        0.296645   0.000000
   35        0.898133   0.000000
   36        0.898927   0.000000
   37        1.772455   0.000000
   38        1.772501   0.000000
   39        2.333227   0.000000
   40        2.333307   0.000000
   41        2.431862   0.000000
   42        2.431889   0.000000
   43        2.958968   0.000000
   44        2.958981   0.000000
   45        3.456930   0.000000
   46        3.456940   0.000000
   47        3.587480   0.000000
   48        3.587504   0.000000
   49        3.904849   0.000000
   50        3.904861   0.000000
   51        4.473214   0.000000
   52        4.473232   0.000000
   53        4.967559   0.000000
   54        4.967601   0.000000
   55        5.440408   0.000000
   56        5.441125   0.000000
   57        5.513695   0.000000
   58        5.514408   0.000000
   59        5.775931   0.000000
   60        5.775974   0.000000
   61        6.292058   0.000000
   62        6.292087   0.000000
   63        7.303485   0.000000
   64        7.304741   0.000000
   65        7.409549   0.000000
   66        7.411613   0.000000
   67        7.520795   0.000000
   68        7.521527   0.000000
   69        7.552931   0.000000
   70        7.553231   0.000000
   71        8.247020   0.000000
   72        8.247055   0.000000
   73        9.333655   0.000000
   74        9.333690   0.000000
   75        9.942742   0.000000
   76        9.942793   0.000000
   77       10.882006   0.000000
   78       10.883333   0.000000
   79       10.946930   0.000000
   80       10.951595   0.000000
   81       10.974404   0.000000
   82       10.976129   0.000000
   83       11.053471   0.000000
   84       11.060140   0.000000
   85       11.061854   0.000000
   86       11.070109   0.000000
   87       11.556878   0.000000
   88       11.556937   0.000000
   89       11.600814   0.000000
   90       11.600880   0.000000
   91       11.721189   0.000000
   92       11.721241   0.000000
   93       13.339745   0.000000
   94       13.339796   0.000000
   95       13.925494   0.000000
   96       13.925563   0.000000
 
  0.1120447E-01  0.1120447E-01  0.0000000E+00  0.2777778E-02
    1      -42.020200   1.000000
    2      -42.020173   1.000000
    3      -39.653241   1.000000
    4      -39.653214   1.000000
    5      -39.517982   1.000000
    6      -39.517945   1.000000
    7      -19.499330   1.000000
    8      -19.499266   1.000000
    9      -18.196407   1.000000
   10      -18.196280   1.000000
   11      -11.026383   1.000000
   12      -11.026349   1.000000
   13       -8.116291   1.000000
   14       -8.115658   1.000000
   15       -8.050678   1.000000
   16       -8.050066   1.000000
   17       -7.239405   1.000000
   18       -7.238749   1.000000
   19       -6.995406   1.000000
   20       -6.993513   1.000000
   21       -6.895544   1.000000
   22       -6.893912   1.000000
   23       -5.429875   1.000000
   24       -5.429703   1.000000
   25       -2.760610   0.000000
   26       -2.758972   0.000000
   27       -2.680740   0.000000
   28       -2.679348   0.000000
   29       -2.494358   0.000000
   30       -2.490665   0.000000
   31       -2.484363   0.000000
   32       -2.480820   0.000000
   33        0.301310   0.000000
   34        0.302416   0.000000
   35        0.907804   0.000000
   36        0.908849   0.000000
   37        1.775789   0.000000
   38        1.775841   0.000000
   39        2.336577   0.000000
   40        2.336679   0.000000
   41        2.434996   0.000000
   42        2.435026   0.000000
   43        2.962169   0.000000
   44        2.962184   0.000000
   45        3.460129   0.000000
   46        3.460141   0.000000
   47        3.599606   0.000000
   48        3.599631   0.000000
   49        3.907982   0.000000
   50        3.907994   0.000000
   51        4.476311   0.000000
   52        4.476330   0.000000
   53        4.969573   0.000000
   54        4.969625   0.000000
   55        5.436251   0.000000
   56        5.437807   0.000000
   57        5.515912   0.000000
   58        5.517449   0.000000
   59        5.778908   0.000000
   60        5.778964   0.000000
   61        6.297488   0.000000
   62        6.297529   0.000000
   63        7.304782   0.000000
   64        7.306720   0.000000
   65        7.408615   0.000000
   66        7.412125   0.000000
   67        7.501093   0.000000
   68        7.502518   0.000000
   69        7.553486   0.000000
   70        7.553890   0.000000
   71        8.247582   0.000000
   72        8.247630   0.000000
   73        9.336061   0.000000
   74        9.336109   0.000000
   75        9.944128   0.000000
   76        9.944221   0.000000
   77       10.879537   0.000000
   78       10.882545   0.000000
   79       10.947077   0.000000
   80       10.952310   0.000000
   81       10.981127   0.000000
   82       10.983600   0.000000
   83       11.043190   0.000000
   84       11.052314   0.000000
   85       11.057510   0.000000
   86       11.068981   0.000000
   87       11.565333   0.000000
   88       11.565428   0.000000
   89       11.600856   0.000000
   90       11.600923   0.000000
   91       11.728221   0.000000
   92       11.728296   0.000000
   93       13.346995   0.000000
   94       13.347068   0.000000
   95       13.934849   0.000000
   96       13.934944   0.000000
 
  0.1400559E-01  0.1400559E-01  0.0000000E+00  0.2777778E-02
    1      -42.020401   1.000000
    2      -42.020371   1.000000
    3      -39.653320   1.000000
    4      -39.653294   1.000000
    5      -39.518484   1.000000
    6      -39.518454   1.000000
    7      -19.496220   1.000000
    8      -19.496138   1.000000
    9      -18.195140   1.000000
   10      -18.194990   1.000000
   11      -11.022767   1.000000
   12      -11.022723   1.000000
   13       -8.120353   1.000000
   14       -8.119196   1.000000
   15       -8.051109   1.000000
   16       -8.049968   1.000000
   17       -7.268008   1.000000
   18       -7.267294   1.000000
   19       -6.996308   1.000000
   20       -6.993626   1.000000
   21       -6.876529   1.000000
   22       -6.874100   1.000000
   23       -5.431472   1.000000
   24       -5.431257   1.000000
   25       -2.762534   0.000000
   26       -2.759507   0.000000
   27       -2.679939   0.000000
   28       -2.677381   0.000000
   29       -2.503755   0.000000
   30       -2.499077   0.000000
   31       -2.488315   0.000000
   32       -2.483941   0.000000
   33        0.308314   0.000000
   34        0.309684   0.000000
   35        0.920284   0.000000
   36        0.921575   0.000000
   37        1.780077   0.000000
   38        1.780137   0.000000
   39        2.340886   0.000000
   40        2.341007   0.000000
   41        2.439026   0.000000
   42        2.439058   0.000000
   43        2.966284   0.000000
   44        2.966302   0.000000
   45        3.464236   0.000000
   46        3.464251   0.000000
   47        3.615120   0.000000
   48        3.615149   0.000000
   49        3.912007   0.000000
   50        3.912020   0.000000
   51        4.480292   0.000000
   52        4.480312   0.000000
   53        4.972096   0.000000
   54        4.972161   0.000000
   55        5.429168   0.000000
   56        5.431793   0.000000
   57        5.520800   0.000000
   58        5.523380   0.000000
   59        5.782727   0.000000
   60        5.782796   0.000000
   61        6.304325   0.000000
   62        6.304380   0.000000
   63        7.306119   0.000000
   64        7.309111   0.000000
   65        7.404350   0.000000
   66        7.410446   0.000000
   67        7.478481   0.000000
   68        7.481377   0.000000
   69        7.554669   0.000000
   70        7.555162   0.000000
   71        8.248330   0.000000
   72        8.248392   0.000000
   73        9.339134   0.000000
   74        9.339193   0.000000
   75        9.945877   0.000000
   76        9.946043   0.000000
   77       10.859412   0.000000
   78       10.863557   0.000000
   79       10.956367   0.000000
   80       10.961080   0.000000
   81       10.997304   0.000000
   82       11.001096   0.000000
   83       11.031767   0.000000
   84       11.042185   0.000000
   85       11.053344   0.000000
   86       11.067823   0.000000
   87       11.575841   0.000000
   88       11.575984   0.000000
   89       11.600905   0.000000
   90       11.600971   0.000000
   91       11.737215   0.000000
   92       11.737317   0.000000
   93       13.356326   0.000000
   94       13.356434   0.000000
   95       13.946145   0.000000
   96       13.946261   0.000000
 
  0.1680671E-01  0.1680671E-01  0.0000000E+00  0.2777778E-02
    1      -42.020646   1.000000
    2      -42.020614   1.000000
    3      -39.653417   1.000000
    4      -39.653392   1.000000
    5      -39.519097   1.000000
    6      -39.519076   1.000000
    7      -19.492421   1.000000
    8      -19.492319   1.000000
    9      -18.193590   1.000000
   10      -18.193419   1.000000
   11      -11.018357   1.000000
   12      -11.018302   1.000000
   13       -8.126174   1.000000
   14       -8.124357   1.000000
   15       -8.050768   1.000000
   16       -8.048955   1.000000
   17       -7.298397   1.000000
   18       -7.297646   1.000000
   19       -7.000014   1.000000
   20       -6.996595   1.000000
   21       -6.855021   1.000000
   22       -6.851826   1.000000
   23       -5.433441   1.000000
   24       -5.433182   1.000000
   25       -2.765703   0.000000
   26       -2.760855   0.000000
   27       -2.678198   0.000000
   28       -2.674188   0.000000
   29       -2.514967   0.000000
   30       -2.509246   0.000000
   31       -2.492998   0.000000
   32       -2.487844   0.000000
   33        0.316750   0.000000
   34        0.318372   0.000000
   35        0.935575   0.000000
   36        0.937104   0.000000
   37        1.785320   0.000000
   38        1.785389   0.000000
   39        2.346151   0.000000
   40        2.346286   0.000000
   41        2.443948   0.000000
   42        2.443983   0.000000
   43        2.971312   0.000000
   44        2.971333   0.000000
   45        3.469250   0.000000
   46        3.469266   0.000000
   47        3.633964   0.000000
   48        3.634000   0.000000
   49        3.916924   0.000000
   50        3.916937   0.000000
   51        4.485156   0.000000
   52        4.485176   0.000000
   53        4.975066   0.000000
   54        4.975152   0.000000
   55        5.419035   0.000000
   56        5.422793   0.000000
   57        5.528836   0.000000
   58        5.532511   0.000000
   59        5.787382   0.000000
   60        5.787463   0.000000
   61        6.312474   0.000000
   62        6.312548   0.000000
   63        7.306956   0.000000
   64        7.311824   0.000000
   65        7.391454   0.000000
   66        7.401498   0.000000
   67        7.459055   0.000000
   68        7.464007   0.000000
   69        7.556326   0.000000
   70        7.556897   0.000000
   71        8.249283   0.000000
   72        8.249360   0.000000
   73        9.342853   0.000000
   74        9.342924   0.000000
   75        9.947966   0.000000
   76        9.948246   0.000000
   77       10.828371   0.000000
   78       10.833167   0.000000
   79       10.962108   0.000000
   80       10.967556   0.000000
   81       11.009794   0.000000
   82       11.022756   0.000000
   83       11.029753   0.000000
   84       11.043200   0.000000
   85       11.051690   0.000000
   86       11.069148   0.000000
   87       11.588311   0.000000
   88       11.588512   0.000000
   89       11.600961   0.000000
   90       11.601026   0.000000
   91       11.748133   0.000000
   92       11.748270   0.000000
   93       13.367745   0.000000
   94       13.367903   0.000000
   95       13.958957   0.000000
   96       13.959093   0.000000
 
  0.1960782E-01  0.1960782E-01  0.0000000E+00  0.2777778E-02
    1      -42.020937   1.000000
    2      -42.020900   1.000000
    3      -39.653534   1.000000
    4      -39.653509   1.000000
    5      -39.519817   1.000000
    6      -39.519809   1.000000
    7      -19.487934   1.000000
    8      -19.487812   1.000000
    9      -18.191759   1.000000
   10      -18.191565   1.000000
   11      -11.013158   1.000000
   12      -11.013090   1.000000
   13       -8.133940   1.000000
   14       -8.131388   1.000000
   15       -8.049381   1.000000
   16       -8.046820   1.000000
   17       -7.330036   1.000000
   18       -7.329271   1.000000
   19       -7.005930   1.000000
   20       -7.001839   1.000000
   21       -6.832140   1.000000
   22       -6.828205   1.000000
   23       -5.435794   1.000000
   24       -5.435490   1.000000
   25       -2.770286   0.000000
   26       -2.763329   0.000000
   27       -2.675174   0.000000
   28       -2.669646   0.000000
   29       -2.527883   0.000000
   30       -2.521013   0.000000
   31       -2.498379   0.000000
   32       -2.492516   0.000000
   33        0.326537   0.000000
   34        0.328397   0.000000
   35        0.953675   0.000000
   36        0.955433   0.000000
   37        1.791519   0.000000
   38        1.791598   0.000000
   39        2.352369   0.000000
   40        2.352515   0.000000
   41        2.449763   0.000000
   42        2.449799   0.000000
   43        2.977253   0.000000
   44        2.977276   0.000000
   45        3.475167   0.000000
   46        3.475186   0.000000
   47        3.656069   0.000000
   48        3.656115   0.000000
   49        3.922730   0.000000
   50        3.922744   0.000000
   51        4.490899   0.000000
   52        4.490921   0.000000
   53        4.978409   0.000000
   54        4.978522   0.000000
   55        5.406191   0.000000
   56        5.411043   0.000000
   57        5.540018   0.000000
   58        5.544735   0.000000
   59        5.792866   0.000000
   60        5.792957   0.000000
   61        6.321841   0.000000
   62        6.321938   0.000000
   63        7.305776   0.000000
   64        7.314734   0.000000
   65        7.365027   0.000000
   66        7.379598   0.000000
   67        7.450432   0.000000
   68        7.455870   0.000000
   69        7.558400   0.000000
   70        7.559037   0.000000
   71        8.250464   0.000000
   72        8.250557   0.000000
   73        9.347194   0.000000
   74        9.347279   0.000000
   75        9.950371   0.000000
   76        9.950811   0.000000
   77       10.790865   0.000000
   78       10.796149   0.000000
   79       10.960519   0.000000
   80       10.970749   0.000000
   81       10.999791   0.000000
   82       11.012438   0.000000
   83       11.036635   0.000000
   84       11.055179   0.000000
   85       11.085255   0.000000
   86       11.091634   0.000000
   87       11.600921   0.000000
   88       11.601008   0.000000
   89       11.602876   0.000000
   90       11.603112   0.000000
   91       11.760934   0.000000
   92       11.761110   0.000000
   93       13.381260   0.000000
   94       13.381486   0.000000
   95       13.972916   0.000000
   96       13.973067   0.000000
 
  0.2240894E-01  0.2240894E-01  0.0000000E+00  0.2777778E-02
    1      -42.021273   1.000000
    2      -42.021229   1.000000
    3      -39.653670   1.000000
    4      -39.653643   1.000000
    5      -39.520653   1.000000
    6      -39.520644   1.000000
    7      -19.482762   1.000000
    8      -19.482619   1.000000
    9      -18.189647   1.000000
   10      -18.189430   1.000000
   11      -11.007177   1.000000
   12      -11.007095   1.000000
   13       -8.143694   1.000000
   14       -8.140396   1.000000
   15       -8.046821   1.000000
   16       -8.043497   1.000000
   17       -7.362587   1.000000
   18       -7.361832   1.000000
   19       -7.013667   1.000000
   20       -7.008963   1.000000
   21       -6.808625   1.000000
   22       -6.803955   1.000000
   23       -5.438544   1.000000
   24       -5.438194   1.000000
   25       -2.776317   0.000000
   26       -2.767144   0.000000
   27       -2.670644   0.000000
   28       -2.663845   0.000000
   29       -2.542368   0.000000
   30       -2.534148   0.000000
   31       -2.504418   0.000000
   32       -2.497944   0.000000
   33        0.337586   0.000000
   34        0.339668   0.000000
   35        0.974573   0.000000
   36        0.976552   0.000000
   37        1.798676   0.000000
   38        1.798767   0.000000
   39        2.359540   0.000000
   40        2.359690   0.000000
   41        2.456469   0.000000
   42        2.456505   0.000000
   43        2.984106   0.000000
   44        2.984132   0.000000
   45        3.481986   0.000000
   46        3.482007   0.000000
   47        3.681351   0.000000
   48        3.681410   0.000000
   49        3.929423   0.000000
   50        3.929439   0.000000
   51        4.497522   0.000000
   52        4.497545   0.000000
   53        4.982021   0.000000
   54        4.982168   0.000000
   55        5.391143   0.000000
   56        5.397028   0.000000
   57        5.554113   0.000000
   58        5.559797   0.000000
   59        5.799169   0.000000
   60        5.799269   0.000000
   61        6.332328   0.000000
   62        6.332455   0.000000
   63        7.297050   0.000000
   64        7.317110   0.000000
   65        7.327956   0.000000
   66        7.352827   0.000000
   67        7.450442   0.000000
   68        7.455204   0.000000
   69        7.560878   0.000000
   70        7.561568   0.000000
   71        8.251904   0.000000
   72        8.252013   0.000000
   73        9.352127   0.000000
   74        9.352229   0.000000
   75        9.953060   0.000000
   76        9.953717   0.000000
   77       10.748772   0.000000
   78       10.754494   0.000000
   79       10.948454   0.000000
   80       10.967416   0.000000
   81       10.993267   0.000000
   82       11.002548   0.000000
   83       11.032876   0.000000
   84       11.054698   0.000000
   85       11.136858   0.000000
   86       11.139407   0.000000
   87       11.601039   0.000000
   88       11.601108   0.000000
   89       11.619474   0.000000
   90       11.619789   0.000000
   91       11.775570   0.000000
   92       11.775791   0.000000
   93       13.396880   0.000000
   94       13.397194   0.000000
   95       13.987724   0.000000
   96       13.987886   0.000000
 
  0.2521006E-01  0.2521006E-01  0.0000000E+00  0.2777778E-02
    1      -42.021653   1.000000
    2      -42.021601   1.000000
    3      -39.653827   1.000000
    4      -39.653796   1.000000
    5      -39.521606   1.000000
    6      -39.521576   1.000000
    7      -19.476909   1.000000
    8      -19.476743   1.000000
    9      -18.187255   1.000000
   10      -18.187016   1.000000
   11      -11.000423   1.000000
   12      -11.000323   1.000000
   13       -8.155374   1.000000
   14       -8.151359   1.000000
   15       -8.043079   1.000000
   16       -8.039019   1.000000
   17       -7.395825   1.000000
   18       -7.395102   1.000000
   19       -7.022994   1.000000
   20       -7.017728   1.000000