       N       E                     dE             d eps       ncg     rms          ort
SDA:   1     0.102121453359E+03    0.10212E+03    0.00000E+00 23040   0.195E+03 0.000E+00
CGA:   2     0.278187553016E+02   -0.74303E+02   -0.81914E+02 23040   0.139E+03-0.299E+02
CGA:   3     0.312189113359E+01   -0.24697E+02   -0.24706E+02 23040   0.461E+02 0.235E+01
CGA:   4    -0.650427746741E+01   -0.96262E+01   -0.96362E+01 23040   0.286E+02-0.151E+00
CGA:   5    -0.145804539244E+02   -0.80762E+01   -0.80608E+01 23040   0.182E+02-0.673E+00
CGA:   6    -0.185175602223E+02   -0.39371E+01   -0.39553E+01 23040   0.769E+01-0.147E+01
CGA:   7    -0.202713130736E+02   -0.17538E+01   -0.17714E+01 23040   0.376E+01-0.195E+00
CGA:   8    -0.210210267900E+02   -0.74971E+00   -0.75340E+00 23040   0.115E+01 0.138E+00
CGA:   9    -0.212492322890E+02   -0.22821E+00   -0.60300E+00 23040   0.193E+01-0.998E+00
CGA:  10    -0.215816602856E+02   -0.33243E+00   -0.33248E+00 23040   0.375E+00-0.706E-04
CGA:  11    -0.216850203434E+02   -0.10336E+00   -0.10337E+00 23040   0.117E+00-0.270E-03
CGA:  12    -0.217210590923E+02   -0.36039E-01   -0.36065E-01 23040   0.512E-01-0.266E-03
CGA:  13    -0.217375905584E+02   -0.16531E-01   -0.16555E-01 23040   0.190E-01-0.216E-03
CGA:  14    -0.217436075363E+02   -0.60170E-02   -0.60232E-02 23040   0.570E-02-0.624E-04
CGA:  15    -0.217453550922E+02   -0.17476E-02   -0.17483E-02 23040   0.134E-02-0.947E-05
CGA:  16    -0.217457740716E+02   -0.41898E-03   -0.41910E-03 23040   0.299E-03-0.158E-05
CGA:  17    -0.217458741647E+02   -0.10009E-03   -0.10013E-03 23040   0.727E-04-0.336E-06
CGA:  18    -0.217459004920E+02   -0.26327E-04   -0.26339E-04 23040   0.210E-04-0.933E-07
CGA:  19    -0.217459087922E+02   -0.83002E-05   -0.83067E-05 23040   0.674E-05-0.371E-07
CGA:  20    -0.217459116145E+02   -0.28223E-05   -0.28272E-05 23040   0.221E-05-0.220E-07
CGA:  21    -0.217459125209E+02   -0.90639E-06   -0.90957E-06 23040   0.647E-06-0.990E-08
CGA:  22    -0.217459127830E+02   -0.26215E-06   -0.26345E-06 23040   0.190E-06-0.724E-09
