       N       E                     dE             d eps       ncg     rms          ort
SDA:   1     0.996584120615E+02    0.99658E+02    0.00000E+00 23040   0.192E+03 0.000E+00
CGA:   2     0.269279617776E+02   -0.72730E+02   -0.79756E+02 23040   0.135E+03-0.250E+02
CGA:   3     0.243428548219E+01   -0.24494E+02   -0.24528E+02 23040   0.441E+02 0.458E+01
CGA:   4    -0.694083199829E+01   -0.93751E+01   -0.93865E+01 23040   0.285E+02 0.730E-01
CGA:   5    -0.147262639195E+02   -0.77854E+01   -0.76884E+01 23040   0.172E+02 0.100E+01
CGA:   6    -0.186740261790E+02   -0.39478E+01   -0.39459E+01 23040   0.701E+01-0.471E+00
CGA:   7    -0.203916819016E+02   -0.17177E+01   -0.17330E+01 23040   0.346E+01-0.643E-01
CGA:   8    -0.210875754298E+02   -0.69589E+00   -0.69967E+00 23040   0.106E+01 0.134E+00
CGA:   9    -0.213208379050E+02   -0.23326E+00   -0.54146E+00 23040   0.167E+01-0.888E+00
CGA:  10    -0.216129411289E+02   -0.29210E+00   -0.29213E+00 23040   0.327E+00-0.153E-03
CGA:  11    -0.217013906481E+02   -0.88450E-01   -0.88463E-01 23040   0.103E+00-0.283E-03
CGA:  12    -0.217331973198E+02   -0.31807E-01   -0.31832E-01 23040   0.456E-01-0.249E-03
CGA:  13    -0.217479068492E+02   -0.14710E-01   -0.14732E-01 23040   0.164E-01-0.196E-03
CGA:  14    -0.217531128305E+02   -0.52060E-02   -0.52118E-02 23040   0.501E-02-0.572E-04
CGA:  15    -0.217546531685E+02   -0.15403E-02   -0.15411E-02 23040   0.119E-02-0.943E-05
CGA:  16    -0.217550252945E+02   -0.37213E-03   -0.37224E-03 23040   0.267E-03-0.148E-05
CGA:  17    -0.217551142517E+02   -0.88957E-04   -0.88986E-04 23040   0.635E-04-0.300E-06
CGA:  18    -0.217551372157E+02   -0.22964E-04   -0.22974E-04 23040   0.184E-04-0.838E-07
CGA:  19    -0.217551444618E+02   -0.72461E-05   -0.72520E-05 23040   0.595E-05-0.325E-07
CGA:  20    -0.217551469607E+02   -0.24989E-05   -0.25033E-05 23040   0.194E-05-0.189E-07
CGA:  21    -0.217551477589E+02   -0.79819E-06   -0.80113E-06 23040   0.572E-06-0.927E-08
CGA:  22    -0.217551479900E+02   -0.23110E-06   -0.23245E-06 23040   0.168E-06-0.123E-08
