# energy dos(up) dos(down)
-3.770690000000000452e+01 0.000000000000000000e+00 -0.000000000000000000e+00
-3.769650000000000034e+01 0.000000000000000000e+00 -0.000000000000000000e+00
-3.768599999999999994e+01 0.000000000000000000e+00 -0.000000000000000000e+00
-3.767560000000000286e+01 0.000000000000000000e+00 -0.000000000000000000e+00
-3.766519999999999868e+01 0.000000000000000000e+00 -0.000000000000000000e+00
-3.765469999999999828e+01 0.000000000000000000e+00 -0.000000000000000000e+00
-3.764430000000000121e+01 0.000000000000000000e+00 -0.000000000000000000e+00
-3.763390000000000413e+01 0.000000000000000000e+00 -0.000000000000000000e+00
-3.762340000000000373e+01 0.000000000000000000e+00 -0.000000000000000000e+00
-3.761299999999999955e+01 0.000000000000000000e+00 -0.000000000000000000e+00
-3.760260000000000247e+01 0.000000000000000000e+00 -0.000000000000000000e+00
-3.759219999999999828e+01 0.000000000000000000e+00 -0.000000000000000000e+00
-3.758170000000000499e+01 0.000000000000000000e+00 -0.000000000000000000e+00
-3.757130000000000081e+01 0.000000000000000000e+00 -0.000000000000000000e+00
-3.756090000000000373e+01 0.000000000000000000e+00 -0.000000000000000000e+00
-3.755040000000000333e+01 0.000000000000000000e+00 -0.000000000000000000e+00
-3.753999999999999915e+01 0.000000000000000000e+00 -0.000000000000000000e+00
-3.752960000000000207e+01 0.000000000000000000e+00 -0.000000000000000000e+00
-3.751910000000000167e+01 0.000000000000000000e+00 -0.000000000000000000e+00
-3.750870000000000459e+01 0.000000000000000000e+00 -0.000000000000000000e+00
-3.749830000000000041e+01 0.000000000000000000e+00 -0.000000000000000000e+00
-3.748790000000000333e+01 0.000000000000000000e+00 -0.000000000000000000e+00
-3.747740000000000293e+01 0.000000000000000000e+00 -0.000000000000000000e+00
-3.746699999999999875e+01 0.000000000000000000e+00 -0.000000000000000000e+00
-3.745660000000000167e+01 0.000000000000000000e+00 -0.000000000000000000e+00
-3.744610000000000127e+01 0.000000000000000000e+00 -0.000000000000000000e+00
-3.743570000000000420e+01 0.000000000000000000e+00 -0.000000000000000000e+00
-3.742530000000000001e+01 0.000000000000000000e+00 -0.000000000000000000e+00
-3.741479999999999961e+01 0.000000000000000000e+00 -0.000000000000000000e+00
-3.740440000000000254e+01 0.000000000000000000e+00 -0.000000000000000000e+00
-3.739399999999999835e+01 0.000000000000000000e+00 -0.000000000000000000e+00
-3.738360000000000127e+01 0.000000000000000000e+00 -0.000000000000000000e+00
-3.737310000000000088e+01 0.000000000000000000e+00 -0.000000000000000000e+00
-3.736270000000000380e+01 0.000000000000000000e+00 -0.000000000000000000e+00
-3.735229999999999961e+01 0.000000000000000000e+00 -0.000000000000000000e+00
-3.734179999999999922e+01 0.000000000000000000e+00 -0.000000000000000000e+00
-3.733140000000000214e+01 0.000000000000000000e+00 -0.000000000000000000e+00
-3.732099999999999795e+01 0.000000000000000000e+00 -0.000000000000000000e+00
-3.731050000000000466e+01 0.000000000000000000e+00 -0.000000000000000000e+00
-3.730010000000000048e+01 0.000000000000000000e+00 -0.000000000000000000e+00
-3.728970000000000340e+01 0.000000000000000000e+00 -0.000000000000000000e+00
-3.727929999999999922e+01 0.000000000000000000e+00 -0.000000000000000000e+00
-3.726879999999999882e+01 0.000000000000000000e+00 -0.000000000000000000e+00
-3.725840000000000174e+01 0.000000000000000000e+00 -0.000000000000000000e+00
-3.724800000000000466e+01 0.000000000000000000e+00 -0.000000000000000000e+00
-3.723750000000000426e+01 0.000000000000000000e+00 -0.000000000000000000e+00
-3.722710000000000008e+01 0.000000000000000000e+00 -0.000000000000000000e+00
-3.721670000000000300e+01 0.000000000000000000e+00 -0.000000000000000000e+00
-3.720620000000000260e+01 0.000000000000000000e+00 -0.000000000000000000e+00
-3.719579999999999842e+01 0.000000000000000000e+00 -0.000000000000000000e+00
-3.718540000000000134e+01 0.000000000000000000e+00 -0.000000000000000000e+00
-3.717500000000000426e+01 0.000000000000000000e+00 -0.000000000000000000e+00
-3.716450000000000387e+01 0.000000000000000000e+00 -0.000000000000000000e+00
-3.715409999999999968e+01 0.000000000000000000e+00 -0.000000000000000000e+00
-3.714370000000000260e+01 0.000000000000000000e+00 -0.000000000000000000e+00
-3.713320000000000221e+01 0.000000000000000000e+00 -0.000000000000000000e+00
-3.712279999999999802e+01 0.000000000000000000e+00 -0.000000000000000000e+00
-3.711240000000000094e+01 0.000000000000000000e+00 -0.000000000000000000e+00
-3.710190000000000055e+01 0.000000000000000000e+00 -0.000000000000000000e+00
-3.709150000000000347e+01 0.000000000000000000e+00 -0.000000000000000000e+00
-3.708109999999999928e+01 0.000000000000000000e+00 -0.000000000000000000e+00
-3.707070000000000221e+01 0.000000000000000000e+00 -0.000000000000000000e+00
-3.706020000000000181e+01 0.000000000000000000e+00 -0.000000000000000000e+00
-3.704980000000000473e+01 0.000000000000000000e+00 -0.000000000000000000e+00
-3.703940000000000055e+01 0.000000000000000000e+00 -0.000000000000000000e+00
-3.702890000000000015e+01 0.000000000000000000e+00 -0.000000000000000000e+00
-3.701850000000000307e+01 0.000000000000000000e+00 -0.000000000000000000e+00
-3.700809999999999889e+01 0.000000000000000000e+00 -0.000000000000000000e+00
-3.699759999999999849e+01 0.000000000000000000e+00 -0.000000000000000000e+00
-3.698720000000000141e+01 0.000000000000000000e+00 -0.000000000000000000e+00
-3.697680000000000433e+01 0.000000000000000000e+00 -0.000000000000000000e+00
-3.696640000000000015e+01 0.000000000000000000e+00 -0.000000000000000000e+00
-3.695589999999999975e+01 0.000000000000000000e+00 -0.000000000000000000e+00
-3.694550000000000267e+01 0.000000000000000000e+00 -0.000000000000000000e+00
-3.693509999999999849e+01 0.000000000000000000e+00 -0.000000000000000000e+00
-3.692459999999999809e+01 0.000000000000000000e+00 -0.000000000000000000e+00
-3.691420000000000101e+01 0.000000000000000000e+00 -0.000000000000000000e+00
-3.690380000000000393e+01 0.000000000000000000e+00 -0.000000000000000000e+00
-3.689330000000000354e+01 0.000000000000000000e+00 -0.000000000000000000e+00
-3.688289999999999935e+01 0.000000000000000000e+00 -0.000000000000000000e+00
-3.687250000000000227e+01 0.000000000000000000e+00 -0.000000000000000000e+00
-3.686209999999999809e+01 0.000000000000000000e+00 -0.000000000000000000e+00
-3.685160000000000480e+01 0.000000000000000000e+00 -0.000000000000000000e+00
-3.684120000000000061e+01 0.000000000000000000e+00 -0.000000000000000000e+00
-3.683080000000000354e+01 0.000000000000000000e+00 -0.000000000000000000e+00
-3.682030000000000314e+01 0.000000000000000000e+00 -0.000000000000000000e+00
-3.680989999999999895e+01 0.000000000000000000e+00 -0.000000000000000000e+00
-3.679950000000000188e+01 0.000000000000000000e+00 -0.000000000000000000e+00
-3.678900000000000148e+01 0.000000000000000000e+00 -0.000000000000000000e+00
-3.677860000000000440e+01 0.000000000000000000e+00 -0.000000000000000000e+00
-3.676820000000000022e+01 0.000000000000000000e+00 -0.000000000000000000e+00
-3.675780000000000314e+01 0.000000000000000000e+00 -0.000000000000000000e+00
-3.674730000000000274e+01 0.000000000000000000e+00 -0.000000000000000000e+00
-3.673689999999999856e+01 0.000000000000000000e+00 -0.000000000000000000e+00
-3.672650000000000148e+01 0.000000000000000000e+00 -0.000000000000000000e+00
-3.671600000000000108e+01 0.000000000000000000e+00 -0.000000000000000000e+00
-3.670560000000000400e+01 0.000000000000000000e+00 -0.000000000000000000e+00
-3.669519999999999982e+01 0.000000000000000000e+00 -0.000000000000000000e+00
-3.668469999999999942e+01 0.000000000000000000e+00 -0.000000000000000000e+00
-3.667430000000000234e+01 0.000000000000000000e+00 -0.000000000000000000e+00
-3.666389999999999816e+01 0.000000000000000000e+00 -0.000000000000000000e+00
-3.665350000000000108e+01 0.000000000000000000e+00 -0.000000000000000000e+00
-3.664300000000000068e+01 0.000000000000000000e+00 -0.000000000000000000e+00
-3.663260000000000360e+01 0.000000000000000000e+00 -0.000000000000000000e+00
-3.662219999999999942e+01 0.000000000000000000e+00 -0.000000000000000000e+00
-3.661169999999999902e+01 0.000000000000000000e+00 -0.000000000000000000e+00
-3.660130000000000194e+01 0.000000000000000000e+00 -0.000000000000000000e+00
-3.659090000000000487e+01 0.000000000000000000e+00 -0.000000000000000000e+00
-3.658050000000000068e+01 0.000000000000000000e+00 -0.000000000000000000e+00
-3.657000000000000028e+01 0.000000000000000000e+00 -0.000000000000000000e+00
-3.655960000000000321e+01 0.000000000000000000e+00 -0.000000000000000000e+00
-3.654919999999999902e+01 0.000000000000000000e+00 -0.000000000000000000e+00
-3.653869999999999862e+01 0.000000000000000000e+00 -0.000000000000000000e+00
-3.652830000000000155e+01 0.000000000000000000e+00 -0.000000000000000000e+00
-3.651790000000000447e+01 0.000000000000000000e+00 -0.000000000000000000e+00
-3.650740000000000407e+01 0.000000000000000000e+00 -0.000000000000000000e+00
-3.649699999999999989e+01 0.000000000000000000e+00 -0.000000000000000000e+00
-3.648660000000000281e+01 0.000000000000000000e+00 -0.000000000000000000e+00
-3.647619999999999862e+01 0.000000000000000000e+00 -0.000000000000000000e+00
-3.646569999999999823e+01 0.000000000000000000e+00 -0.000000000000000000e+00
-3.645530000000000115e+01 0.000000000000000000e+00 -0.000000000000000000e+00
-3.644490000000000407e+01 0.000000000000000000e+00 -0.000000000000000000e+00
-3.643440000000000367e+01 0.000000000000000000e+00 -0.000000000000000000e+00
-3.642399999999999949e+01 0.000000000000000000e+00 -0.000000000000000000e+00
-3.641360000000000241e+01 0.000000000000000000e+00 -0.000000000000000000e+00
-3.640310000000000201e+01 0.000000000000000000e+00 -0.000000000000000000e+00
-3.639270000000000493e+01 0.000000000000000000e+00 -0.000000000000000000e+00
-3.638230000000000075e+01 0.000000000000000000e+00 -0.000000000000000000e+00
-3.637190000000000367e+01 0.000000000000000000e+00 -0.000000000000000000e+00
-3.636140000000000327e+01 0.000000000000000000e+00 -0.000000000000000000e+00
-3.635099999999999909e+01 0.000000000000000000e+00 -0.000000000000000000e+00
-3.634060000000000201e+01 0.000000000000000000e+00 -0.000000000000000000e+00
-3.633010000000000161e+01 0.000000000000000000e+00 -0.000000000000000000e+00
-3.631970000000000454e+01 0.000000000000000000e+00 -0.000000000000000000e+00
-3.630930000000000035e+01 0.000000000000000000e+00 -0.000000000000000000e+00
-3.629879999999999995e+01 0.000000000000000000e+00 -0.000000000000000000e+00
-3.628840000000000288e+01 0.000000000000000000e+00 -0.000000000000000000e+00
-3.627799999999999869e+01 0.000000000000000000e+00 -0.000000000000000000e+00
-3.626760000000000161e+01 0.000000000000000000e+00 -0.000000000000000000e+00
-3.625710000000000122e+01 0.000000000000000000e+00 -0.000000000000000000e+00
-3.624670000000000414e+01 0.000000000000000000e+00 -0.000000000000000000e+00
-3.623629999999999995e+01 0.000000000000000000e+00 -0.000000000000000000e+00
-3.622579999999999956e+01 0.000000000000000000e+00 -0.000000000000000000e+00
-3.621540000000000248e+01 0.000000000000000000e+00 -0.000000000000000000e+00
-3.620499999999999829e+01 0.000000000000000000e+00 -0.000000000000000000e+00
-3.619450000000000500e+01 0.000000000000000000e+00 -0.000000000000000000e+00
-3.618410000000000082e+01 0.000000000000000000e+00 -0.000000000000000000e+00
-3.617370000000000374e+01 0.000000000000000000e+00 -0.000000000000000000e+00
-3.616329999999999956e+01 0.000000000000000000e+00 -0.000000000000000000e+00
-3.615279999999999916e+01 0.000000000000000000e+00 -0.000000000000000000e+00
-3.614240000000000208e+01 0.000000000000000000e+00 -0.000000000000000000e+00
-3.613200000000000500e+01 0.000000000000000000e+00 -0.000000000000000000e+00
-3.612150000000000460e+01 0.000000000000000000e+00 -0.000000000000000000e+00
-3.611110000000000042e+01 0.000000000000000000e+00 -0.000000000000000000e+00
-3.610070000000000334e+01 0.000000000000000000e+00 -0.000000000000000000e+00
-3.609020000000000294e+01 0.000000000000000000e+00 -0.000000000000000000e+00
-3.607979999999999876e+01 0.000000000000000000e+00 -0.000000000000000000e+00
-3.606940000000000168e+01 0.000000000000000000e+00 -0.000000000000000000e+00
-3.605900000000000460e+01 0.000000000000000000e+00 -0.000000000000000000e+00
-3.604850000000000421e+01 0.000000000000000000e+00 -0.000000000000000000e+00
-3.603810000000000002e+01 0.000000000000000000e+00 -0.000000000000000000e+00
-3.602770000000000294e+01 0.000000000000000000e+00 -0.000000000000000000e+00
-3.601720000000000255e+01 0.000000000000000000e+00 -0.000000000000000000e+00
-3.600679999999999836e+01 0.000000000000000000e+00 -0.000000000000000000e+00
-3.599640000000000128e+01 0.000000000000000000e+00 -0.000000000000000000e+00
-3.598590000000000089e+01 0.000000000000000000e+00 -0.000000000000000000e+00
-3.597550000000000381e+01 0.000000000000000000e+00 -0.000000000000000000e+00
-3.596509999999999962e+01 0.000000000000000000e+00 -0.000000000000000000e+00
-3.595470000000000255e+01 0.000000000000000000e+00 -0.000000000000000000e+00
-3.594420000000000215e+01 0.000000000000000000e+00 -0.000000000000000000e+00
-3.593379999999999797e+01 0.000000000000000000e+00 -0.000000000000000000e+00
-3.592340000000000089e+01 0.000000000000000000e+00 -0.000000000000000000e+00
-3.591290000000000049e+01 0.000000000000000000e+00 -0.000000000000000000e+00
-3.590250000000000341e+01 0.000000000000000000e+00 -0.000000000000000000e+00
-3.589209999999999923e+01 0.000000000000000000e+00 -0.000000000000000000e+00
-3.588159999999999883e+01 0.000000000000000000e+00 -0.000000000000000000e+00
-3.587120000000000175e+01 0.000000000000000000e+00 -0.000000000000000000e+00
-3.586080000000000467e+01 0.000000000000000000e+00 -0.000000000000000000e+00
-3.585040000000000049e+01 0.000000000000000000e+00 -0.000000000000000000e+00
-3.583990000000000009e+01 0.000000000000000000e+00 -0.000000000000000000e+00
-3.582950000000000301e+01 0.000000000000000000e+00 -0.000000000000000000e+00
-3.581909999999999883e+01 0.000000000000000000e+00 -0.000000000000000000e+00
-3.580859999999999843e+01 0.000000000000000000e+00 -0.000000000000000000e+00
-3.579820000000000135e+01 0.000000000000000000e+00 -0.000000000000000000e+00
-3.578780000000000427e+01 0.000000000000000000e+00 -0.000000000000000000e+00
-3.577730000000000388e+01 0.000000000000000000e+00 -0.000000000000000000e+00
-3.576689999999999969e+01 0.000000000000000000e+00 -0.000000000000000000e+00
-3.575650000000000261e+01 0.000000000000000000e+00 -0.000000000000000000e+00
-3.574609999999999843e+01 0.000000000000000000e+00 -0.000000000000000000e+00
-3.573559999999999803e+01 0.000000000000000000e+00 -0.000000000000000000e+00
-3.572520000000000095e+01 0.000000000000000000e+00 -0.000000000000000000e+00
-3.571480000000000388e+01 0.000000000000000000e+00 -0.000000000000000000e+00
-3.570430000000000348e+01 0.000000000000000000e+00 -0.000000000000000000e+00
-3.569389999999999930e+01 0.000000000000000000e+00 -0.000000000000000000e+00
-3.568350000000000222e+01 0.000000000000000000e+00 -0.000000000000000000e+00
-3.567300000000000182e+01 0.000000000000000000e+00 -0.000000000000000000e+00
-3.566260000000000474e+01 0.000000000000000000e+00 -0.000000000000000000e+00
-3.565220000000000056e+01 0.000000000000000000e+00 -0.000000000000000000e+00
-3.564180000000000348e+01 0.000000000000000000e+00 -0.000000000000000000e+00
-3.563130000000000308e+01 0.000000000000000000e+00 -0.000000000000000000e+00
-3.562089999999999890e+01 0.000000000000000000e+00 -0.000000000000000000e+00
-3.561050000000000182e+01 0.000000000000000000e+00 -0.000000000000000000e+00
-3.560000000000000142e+01 0.000000000000000000e+00 -0.000000000000000000e+00
-3.558960000000000434e+01 0.000000000000000000e+00 -0.000000000000000000e+00
-3.557920000000000016e+01 0.000000000000000000e+00 -0.000000000000000000e+00
-3.556869999999999976e+01 0.000000000000000000e+00 -0.000000000000000000e+00
-3.555830000000000268e+01 0.000000000000000000e+00 -0.000000000000000000e+00
-3.554789999999999850e+01 0.000000000000000000e+00 -0.000000000000000000e+00
-3.553750000000000142e+01 0.000000000000000000e+00 -0.000000000000000000e+00
-3.552700000000000102e+01 0.000000000000000000e+00 -0.000000000000000000e+00
-3.551660000000000394e+01 0.000000000000000000e+00 -0.000000000000000000e+00
-3.550619999999999976e+01 0.000000000000000000e+00 -0.000000000000000000e+00
-3.549569999999999936e+01 0.000000000000000000e+00 -0.000000000000000000e+00
-3.548530000000000229e+01 0.000000000000000000e+00 -0.000000000000000000e+00
-3.547489999999999810e+01 2.000000000000000096e-04 -2.000000000000000096e-04
-3.546440000000000481e+01 5.000000000000000104e-04 -5.000000000000000104e-04
-3.545400000000000063e+01 1.600000000000000077e-03 -1.600000000000000077e-03
-3.544360000000000355e+01 4.700000000000000185e-03 -4.700000000000000185e-03
-3.543319999999999936e+01 1.239999999999999956e-02 -1.239999999999999956e-02
-3.542269999999999897e+01 3.039999999999999994e-02 -3.039999999999999994e-02
-3.541230000000000189e+01 6.869999999999999718e-02 -6.869999999999999718e-02
-3.540190000000000481e+01 1.439000000000000001e-01 -1.439000000000000001e-01
-3.539140000000000441e+01 2.797999999999999932e-01 -2.797999999999999932e-01
-3.538100000000000023e+01 5.057000000000000384e-01 -5.057000000000000384e-01
-3.537060000000000315e+01 8.515000000000000346e-01 -8.515000000000000346e-01
-3.536010000000000275e+01 1.339199999999999946e+00 -1.339199999999999946e+00
-3.534969999999999857e+01 1.972199999999999953e+00 -1.972199999999999953e+00
-3.533930000000000149e+01 2.727100000000000080e+00 -2.727100000000000080e+00
-3.532890000000000441e+01 3.550699999999999967e+00 -3.550699999999999967e+00
-3.531840000000000401e+01 4.365300000000000402e+00 -4.365300000000000402e+00
-3.530799999999999983e+01 5.081699999999999662e+00 -5.081699999999999662e+00
-3.529760000000000275e+01 5.617799999999999905e+00 -5.617799999999999905e+00
-3.528710000000000235e+01 5.917600000000000193e+00 -5.917600000000000193e+00
-3.527669999999999817e+01 5.966400000000000148e+00 -5.966400000000000148e+00
-3.526630000000000109e+01 5.796700000000000408e+00 -5.796700000000000408e+00
-3.525580000000000069e+01 5.483299999999999841e+00 -5.483299999999999841e+00
-3.524540000000000362e+01 5.129500000000000171e+00 -5.129500000000000171e+00
-3.523499999999999943e+01 4.848399999999999821e+00 -4.848399999999999821e+00
-3.522460000000000235e+01 4.745700000000000252e+00 -4.745700000000000252e+00
-3.521410000000000196e+01 4.908800000000000274e+00 -4.908800000000000274e+00
-3.520370000000000488e+01 5.401699999999999946e+00 -5.401699999999999946e+00
-3.519330000000000069e+01 6.261800000000000033e+00 -6.261800000000000033e+00
-3.518280000000000030e+01 7.495899999999999785e+00 -7.495899999999999785e+00
-3.517240000000000322e+01 9.070700000000000429e+00 -9.070700000000000429e+00
-3.516199999999999903e+01 1.090090000000000003e+01 -1.090090000000000003e+01
-3.515149999999999864e+01 1.284009999999999962e+01 -1.284009999999999962e+01
-3.514110000000000156e+01 1.468410000000000082e+01 -1.468410000000000082e+01
-3.513070000000000448e+01 1.619460000000000122e+01 -1.619460000000000122e+01
-3.512030000000000030e+01 1.714570000000000149e+01 -1.714570000000000149e+01
-3.510979999999999990e+01 1.738119999999999976e+01 -1.738119999999999976e+01
-3.509940000000000282e+01 1.686120000000000019e+01 -1.686129999999999995e+01
-3.508899999999999864e+01 1.567559999999999931e+01 -1.567559999999999931e+01
-3.507849999999999824e+01 1.401420000000000066e+01 -1.401420000000000066e+01
-3.506810000000000116e+01 1.210740000000000016e+01 -1.210740000000000016e+01
-3.505770000000000408e+01 1.016239999999999988e+01 -1.016239999999999988e+01
-3.504729999999999990e+01 8.322400000000000020e+00 -8.322400000000000020e+00
-3.503679999999999950e+01 6.660300000000000331e+00 -6.660300000000000331e+00
-3.502640000000000242e+01 5.198000000000000398e+00 -5.198000000000000398e+00
-3.501599999999999824e+01 3.935000000000000053e+00 -3.935000000000000053e+00
-3.500550000000000495e+01 2.867999999999999883e+00 -2.867999999999999883e+00
-3.499510000000000076e+01 1.996299999999999963e+00 -1.996299999999999963e+00
-3.498470000000000368e+01 1.317099999999999937e+00 -1.317099999999999937e+00
-3.497420000000000329e+01 8.184000000000000163e-01 -8.184000000000000163e-01
-3.496379999999999910e+01 4.763999999999999901e-01 -4.763999999999999901e-01
-3.495340000000000202e+01 2.587999999999999745e-01 -2.587999999999999745e-01
-3.494300000000000495e+01 1.307999999999999996e-01 -1.307999999999999996e-01
-3.493250000000000455e+01 6.130000000000000032e-02 -6.130000000000000032e-02
-3.492210000000000036e+01 2.659999999999999865e-02 -2.659999999999999865e-02
-3.491170000000000329e+01 1.069999999999999944e-02 -1.069999999999999944e-02
-3.490120000000000289e+01 4.000000000000000083e-03 -4.000000000000000083e-03
-3.489079999999999870e+01 1.399999999999999986e-03 -1.399999999999999986e-03
-3.488040000000000163e+01 4.000000000000000192e-04 -4.000000000000000192e-04
-3.486990000000000123e+01 1.000000000000000048e-04 -1.000000000000000048e-04
-3.485950000000000415e+01 0.000000000000000000e+00 -0.000000000000000000e+00
-3.484909999999999997e+01 0.000000000000000000e+00 -0.000000000000000000e+00
-3.483870000000000289e+01 0.000000000000000000e+00 -0.000000000000000000e+00
-3.482820000000000249e+01 0.000000000000000000e+00 -0.000000000000000000e+00
-3.481779999999999831e+01 0.000000000000000000e+00 -0.000000000000000000e+00
-3.480740000000000123e+01 0.000000000000000000e+00 -0.000000000000000000e+00
-3.479690000000000083e+01 0.000000000000000000e+00 -0.000000000000000000e+00
-3.478650000000000375e+01 0.000000000000000000e+00 -0.000000000000000000e+00
-3.477609999999999957e+01 0.000000000000000000e+00 -0.000000000000000000e+00
-3.476559999999999917e+01 0.000000000000000000e+00 -0.000000000000000000e+00
-3.475520000000000209e+01 0.000000000000000000e+00 -0.000000000000000000e+00
-3.474480000000000501e+01 0.000000000000000000e+00 -0.000000000000000000e+00
-3.473440000000000083e+01 0.000000000000000000e+00 -0.000000000000000000e+00
-3.472390000000000043e+01 0.000000000000000000e+00 -0.000000000000000000e+00
-3.471350000000000335e+01 0.000000000000000000e+00 -0.000000000000000000e+00
-3.470309999999999917e+01 0.000000000000000000e+00 -0.000000000000000000e+00
-3.469259999999999877e+01 0.000000000000000000e+00 -0.000000000000000000e+00
-3.468220000000000169e+01 0.000000000000000000e+00 -0.000000000000000000e+00
-3.467180000000000462e+01 0.000000000000000000e+00 -0.000000000000000000e+00
-3.466130000000000422e+01 0.000000000000000000e+00 -0.000000000000000000e+00
-3.465090000000000003e+01 0.000000000000000000e+00 -0.000000000000000000e+00
-3.464050000000000296e+01 0.000000000000000000e+00 -0.000000000000000000e+00
-3.463009999999999877e+01 0.000000000000000000e+00 -0.000000000000000000e+00
-3.461959999999999837e+01 0.000000000000000000e+00 -0.000000000000000000e+00
-3.460920000000000130e+01 0.000000000000000000e+00 -0.000000000000000000e+00
-3.459880000000000422e+01 0.000000000000000000e+00 -0.000000000000000000e+00
-3.458830000000000382e+01 0.000000000000000000e+00 -0.000000000000000000e+00
-3.457789999999999964e+01 0.000000000000000000e+00 -0.000000000000000000e+00
-3.456750000000000256e+01 0.000000000000000000e+00 -0.000000000000000000e+00
-3.455700000000000216e+01 0.000000000000000000e+00 -0.000000000000000000e+00
-3.454659999999999798e+01 0.000000000000000000e+00 -0.000000000000000000e+00
-3.453620000000000090e+01 0.000000000000000000e+00 -0.000000000000000000e+00
-3.452580000000000382e+01 0.000000000000000000e+00 -0.000000000000000000e+00
-3.451530000000000342e+01 0.000000000000000000e+00 -0.000000000000000000e+00
-3.450489999999999924e+01 0.000000000000000000e+00 -0.000000000000000000e+00
-3.449450000000000216e+01 0.000000000000000000e+00 -0.000000000000000000e+00
-3.448400000000000176e+01 0.000000000000000000e+00 -0.000000000000000000e+00
-3.447360000000000468e+01 0.000000000000000000e+00 -0.000000000000000000e+00
-3.446320000000000050e+01 0.000000000000000000e+00 -0.000000000000000000e+00
-3.445270000000000010e+01 0.000000000000000000e+00 -0.000000000000000000e+00
-3.444230000000000302e+01 0.000000000000000000e+00 -0.000000000000000000e+00
-3.443189999999999884e+01 0.000000000000000000e+00 -0.000000000000000000e+00
-3.442150000000000176e+01 0.000000000000000000e+00 -0.000000000000000000e+00
-3.441100000000000136e+01 0.000000000000000000e+00 -0.000000000000000000e+00
-3.440060000000000429e+01 0.000000000000000000e+00 -0.000000000000000000e+00
-3.439020000000000010e+01 0.000000000000000000e+00 -0.000000000000000000e+00
-3.437969999999999970e+01 0.000000000000000000e+00 -0.000000000000000000e+00
-3.436930000000000263e+01 0.000000000000000000e+00 -0.000000000000000000e+00
-3.435889999999999844e+01 0.000000000000000000e+00 -0.000000000000000000e+00
-3.434839999999999804e+01 0.000000000000000000e+00 -0.000000000000000000e+00
-3.433800000000000097e+01 0.000000000000000000e+00 -0.000000000000000000e+00
-3.432760000000000389e+01 0.000000000000000000e+00 -0.000000000000000000e+00
-3.431719999999999970e+01 0.000000000000000000e+00 -0.000000000000000000e+00
-3.430669999999999931e+01 0.000000000000000000e+00 -0.000000000000000000e+00
-3.429630000000000223e+01 0.000000000000000000e+00 -0.000000000000000000e+00
-3.428589999999999804e+01 0.000000000000000000e+00 -0.000000000000000000e+00
-3.427540000000000475e+01 0.000000000000000000e+00 -0.000000000000000000e+00
-3.426500000000000057e+01 0.000000000000000000e+00 -0.000000000000000000e+00
-3.425460000000000349e+01 0.000000000000000000e+00 -0.000000000000000000e+00
-3.424410000000000309e+01 0.000000000000000000e+00 -0.000000000000000000e+00
-3.423369999999999891e+01 0.000000000000000000e+00 -0.000000000000000000e+00
-3.422330000000000183e+01 0.000000000000000000e+00 -0.000000000000000000e+00
-3.421290000000000475e+01 0.000000000000000000e+00 -0.000000000000000000e+00
-3.420240000000000435e+01 0.000000000000000000e+00 -0.000000000000000000e+00
-3.419200000000000017e+01 0.000000000000000000e+00 -0.000000000000000000e+00
-3.418160000000000309e+01 0.000000000000000000e+00 -0.000000000000000000e+00
-3.417110000000000269e+01 0.000000000000000000e+00 -0.000000000000000000e+00
-3.416069999999999851e+01 0.000000000000000000e+00 -0.000000000000000000e+00
-3.415030000000000143e+01 0.000000000000000000e+00 -0.000000000000000000e+00
-3.413980000000000103e+01 0.000000000000000000e+00 -0.000000000000000000e+00
-3.412940000000000396e+01 0.000000000000000000e+00 -0.000000000000000000e+00
-3.411899999999999977e+01 0.000000000000000000e+00 -0.000000000000000000e+00
-3.410860000000000269e+01 0.000000000000000000e+00 -0.000000000000000000e+00
-3.409810000000000230e+01 0.000000000000000000e+00 -0.000000000000000000e+00
-3.408769999999999811e+01 0.000000000000000000e+00 -0.000000000000000000e+00
-3.407730000000000103e+01 0.000000000000000000e+00 -0.000000000000000000e+00
-3.406680000000000064e+01 0.000000000000000000e+00 -0.000000000000000000e+00
-3.405640000000000356e+01 0.000000000000000000e+00 -0.000000000000000000e+00
-3.404599999999999937e+01 0.000000000000000000e+00 -0.000000000000000000e+00
-3.403549999999999898e+01 0.000000000000000000e+00 -0.000000000000000000e+00
-3.402510000000000190e+01 0.000000000000000000e+00 -0.000000000000000000e+00
-3.401470000000000482e+01 0.000000000000000000e+00 -0.000000000000000000e+00
-3.400430000000000064e+01 0.000000000000000000e+00 -0.000000000000000000e+00
-3.399380000000000024e+01 0.000000000000000000e+00 -0.000000000000000000e+00
-3.398340000000000316e+01 0.000000000000000000e+00 -0.000000000000000000e+00
-3.397299999999999898e+01 0.000000000000000000e+00 -0.000000000000000000e+00
-3.396249999999999858e+01 0.000000000000000000e+00 -0.000000000000000000e+00
-3.395210000000000150e+01 0.000000000000000000e+00 -0.000000000000000000e+00
-3.394170000000000442e+01 0.000000000000000000e+00 -0.000000000000000000e+00
-3.393120000000000402e+01 0.000000000000000000e+00 -0.000000000000000000e+00
-3.392079999999999984e+01 0.000000000000000000e+00 -0.000000000000000000e+00
-3.391040000000000276e+01 0.000000000000000000e+00 -0.000000000000000000e+00
-3.389999999999999858e+01 0.000000000000000000e+00 -0.000000000000000000e+00
-3.388949999999999818e+01 0.000000000000000000e+00 -0.000000000000000000e+00
-3.387910000000000110e+01 0.000000000000000000e+00 -0.000000000000000000e+00
-3.386870000000000402e+01 0.000000000000000000e+00 -0.000000000000000000e+00
-3.385820000000000363e+01 0.000000000000000000e+00 -0.000000000000000000e+00
-3.384779999999999944e+01 0.000000000000000000e+00 -0.000000000000000000e+00
-3.383740000000000236e+01 0.000000000000000000e+00 -0.000000000000000000e+00
-3.382690000000000197e+01 0.000000000000000000e+00 -0.000000000000000000e+00
-3.381650000000000489e+01 0.000000000000000000e+00 -0.000000000000000000e+00
-3.380610000000000070e+01 0.000000000000000000e+00 -0.000000000000000000e+00
-3.379570000000000363e+01 0.000000000000000000e+00 -0.000000000000000000e+00
-3.378520000000000323e+01 0.000000000000000000e+00 -0.000000000000000000e+00
-3.377479999999999905e+01 0.000000000000000000e+00 -0.000000000000000000e+00
-3.376440000000000197e+01 0.000000000000000000e+00 -0.000000000000000000e+00
-3.375390000000000157e+01 0.000000000000000000e+00 -0.000000000000000000e+00
-3.374350000000000449e+01 0.000000000000000000e+00 -0.000000000000000000e+00
-3.373310000000000031e+01 0.000000000000000000e+00 -0.000000000000000000e+00
-3.372259999999999991e+01 0.000000000000000000e+00 -0.000000000000000000e+00
-3.371220000000000283e+01 0.000000000000000000e+00 -0.000000000000000000e+00
-3.370179999999999865e+01 0.000000000000000000e+00 -0.000000000000000000e+00
-3.369140000000000157e+01 0.000000000000000000e+00 -0.000000000000000000e+00
-3.368090000000000117e+01 0.000000000000000000e+00 -0.000000000000000000e+00
-3.367050000000000409e+01 0.000000000000000000e+00 -0.000000000000000000e+00
-3.366009999999999991e+01 0.000000000000000000e+00 -0.000000000000000000e+00