<?xml version="1.0" encoding="ISO-8859-1"?>
<modeling>
 <generator>
  <i name="program" type="string">vasp </i>
  <i name="version" type="string">5.4.1  </i>
  <i name="subversion" type="string">05Feb16 (build Feb 01 2017 11:31:40) complex                          parallel </i>
  <i name="platform" type="string">IFC91_ompi </i>
  <i name="date" type="string">2025 10 21 </i>
  <i name="time" type="string">16:33:51 </i>
 </generator>
 <incar>
  <i type="string" name="SYSTEM"> MoS2 monolayer SCF-highres (SOC OFF)</i>
  <i type="int" name="ISTART">     1</i>
  <i type="string" name="PREC">accurate</i>
  <i type="string" name="ALGO"> Normal</i>
  <i type="logical" name="LSORBIT"> F  </i>
  <i type="logical" name="LNONCOLLINEAR"> F  </i>
  <i type="int" name="ISPIN">     2</i>
  <i type="int" name="ICHARG">    11</i>
  <i type="int" name="NELM">   200</i>
  <i type="int" name="IBRION">    -1</i>
  <i name="EDIFF">      0.00000010</i>
  <i type="int" name="NSW">     0</i>
  <i type="int" name="ISIF">     2</i>
  <i name="ENCUT">    600.00000000</i>
  <i type="int" name="NEDOS">  5000</i>
  <i type="logical" name="LREAL"> F  </i>
  <i type="int" name="ISMEAR">     0</i>
  <i name="SIGMA">      0.05000000</i>
  <i type="logical" name="LWAVE"> T  </i>
  <i type="logical" name="LCHARG"> T  </i>
  <v type="int" name="KPOINT_BSE">    -1     0     0     0</v>
  <i type="int" name="NELM">   200</i>
  <i type="logical" name="LDIPOL"> T  </i>
  <i type="int" name="IDIPOL">     3</i>
  <v name="DIPOL">      0.50000000      0.50000000      0.50000000</v>
 </incar>
 <kpoints>
  <generation param="Gamma">
   <v type="int" name="divisions">      24       24        1 </v>
   <v name="usershift">      0.00000000       0.00000000       0.00000000 </v>
   <v name="genvec1">      0.04166667       0.00000000       0.00000000 </v>
   <v name="genvec2">      0.00000000       0.04166667       0.00000000 </v>
   <v name="genvec3">      0.00000000       0.00000000       1.00000000 </v>
   <v name="shift">      0.00000000       0.00000000       0.00000000 </v>
  </generation>
  <varray name="kpointlist" >
   <v>       0.00000000       0.00000000       0.00000000 </v>
   <v>       0.04166667       0.00000000       0.00000000 </v>
   <v>       0.08333333       0.00000000       0.00000000 </v>
   <v>       0.12500000       0.00000000       0.00000000 </v>
   <v>       0.16666667      -0.00000000       0.00000000 </v>
   <v>       0.20833333       0.00000000       0.00000000 </v>
   <v>       0.25000000       0.00000000       0.00000000 </v>
   <v>       0.29166667       0.00000000       0.00000000 </v>
   <v>       0.33333333       0.00000000       0.00000000 </v>
   <v>       0.37500000      -0.00000000       0.00000000 </v>
   <v>       0.41666667       0.00000000       0.00000000 </v>
   <v>       0.45833333       0.00000000       0.00000000 </v>
   <v>       0.50000000       0.00000000       0.00000000 </v>
   <v>       0.04166667       0.04166667       0.00000000 </v>
   <v>       0.08333333       0.04166667       0.00000000 </v>
   <v>       0.12500000       0.04166667       0.00000000 </v>
   <v>       0.16666667       0.04166667       0.00000000 </v>
   <v>       0.20833333       0.04166667       0.00000000 </v>
   <v>       0.25000000       0.04166667       0.00000000 </v>
   <v>       0.29166667       0.04166667       0.00000000 </v>
   <v>       0.33333333       0.04166667       0.00000000 </v>
   <v>       0.37500000       0.04166667       0.00000000 </v>
   <v>       0.41666667       0.04166667       0.00000000 </v>
   <v>       0.45833333       0.04166667       0.00000000 </v>
   <v>       0.08333333       0.08333333       0.00000000 </v>
   <v>       0.12500000       0.08333333       0.00000000 </v>
   <v>       0.16666667       0.08333333       0.00000000 </v>
   <v>       0.20833333       0.08333333       0.00000000 </v>
   <v>       0.25000000       0.08333333       0.00000000 </v>
   <v>       0.29166667       0.08333333       0.00000000 </v>
   <v>       0.33333333       0.08333333       0.00000000 </v>
   <v>       0.37500000       0.08333333       0.00000000 </v>
   <v>       0.41666667       0.08333333       0.00000000 </v>
   <v>       0.45833333       0.08333333       0.00000000 </v>
   <v>       0.12500000       0.12500000       0.00000000 </v>
   <v>       0.16666667       0.12500000       0.00000000 </v>
   <v>       0.20833333       0.12500000       0.00000000 </v>
   <v>       0.25000000       0.12500000       0.00000000 </v>
   <v>       0.29166667       0.12500000       0.00000000 </v>
   <v>       0.33333333       0.12500000       0.00000000 </v>
   <v>       0.37500000       0.12500000       0.00000000 </v>
   <v>       0.41666667       0.12500000       0.00000000 </v>
   <v>       0.16666667       0.16666667       0.00000000 </v>
   <v>       0.20833333       0.16666667       0.00000000 </v>
   <v>       0.25000000       0.16666667       0.00000000 </v>
   <v>       0.29166667       0.16666667       0.00000000 </v>
   <v>       0.33333333       0.16666667       0.00000000 </v>
   <v>       0.37500000       0.16666667       0.00000000 </v>
   <v>       0.41666667       0.16666667       0.00000000 </v>
   <v>       0.20833333       0.20833333       0.00000000 </v>
   <v>       0.25000000       0.20833333       0.00000000 </v>
   <v>       0.29166667       0.20833333       0.00000000 </v>
   <v>       0.33333333       0.20833333       0.00000000 </v>
   <v>       0.37500000       0.20833333       0.00000000 </v>
   <v>       0.25000000       0.25000000       0.00000000 </v>
   <v>       0.29166667       0.25000000       0.00000000 </v>
   <v>       0.33333333       0.25000000       0.00000000 </v>
   <v>       0.37500000       0.25000000       0.00000000 </v>
   <v>       0.29166667       0.29166667       0.00000000 </v>
   <v>       0.33333333       0.29166667       0.00000000 </v>
   <v>       0.33333333       0.33333333       0.00000000 </v>
  </varray>
  <varray name="weights" >
   <v>       0.00173611 </v>
   <v>       0.01041667 </v>
   <v>       0.01041667 </v>
   <v>       0.01041667 </v>
   <v>       0.01041667 </v>
   <v>       0.01041667 </v>
   <v>       0.01041667 </v>
   <v>       0.01041667 </v>
   <v>       0.01041667 </v>
   <v>       0.01041667 </v>
   <v>       0.01041667 </v>
   <v>       0.01041667 </v>
   <v>       0.00520833 </v>
   <v>       0.01041667 </v>
   <v>       0.02083333 </v>
   <v>       0.02083333 </v>
   <v>       0.02083333 </v>
   <v>       0.02083333 </v>
   <v>       0.02083333 </v>
   <v>       0.02083333 </v>
   <v>       0.02083333 </v>
   <v>       0.02083333 </v>
   <v>       0.02083333 </v>
   <v>       0.02083333 </v>
   <v>       0.01041667 </v>
   <v>       0.02083333 </v>
   <v>       0.02083333 </v>
   <v>       0.02083333 </v>
   <v>       0.02083333 </v>
   <v>       0.02083333 </v>
   <v>       0.02083333 </v>
   <v>       0.02083333 </v>
   <v>       0.02083333 </v>
   <v>       0.01041667 </v>
   <v>       0.01041667 </v>
   <v>       0.02083333 </v>
   <v>       0.02083333 </v>
   <v>       0.02083333 </v>
   <v>       0.02083333 </v>
   <v>       0.02083333 </v>
   <v>       0.02083333 </v>
   <v>       0.02083333 </v>
   <v>       0.01041667 </v>
   <v>       0.02083333 </v>
   <v>       0.02083333 </v>
   <v>       0.02083333 </v>
   <v>       0.02083333 </v>
   <v>       0.02083333 </v>
   <v>       0.01041667 </v>
   <v>       0.01041667 </v>
   <v>       0.02083333 </v>
   <v>       0.02083333 </v>
   <v>       0.02083333 </v>
   <v>       0.02083333 </v>
   <v>       0.01041667 </v>
   <v>       0.02083333 </v>
   <v>       0.02083333 </v>
   <v>       0.01041667 </v>
   <v>       0.01041667 </v>
   <v>       0.02083333 </v>
   <v>       0.00347222 </v>
  </varray>
 </kpoints>
 <parameters>
  <separator name="general" >
   <i type="string" name="SYSTEM">MoS2 monolayer SCF-highres (SOC OFF)</i>
   <i type="logical" name="LCOMPAT"> F  </i>
  </separator>
  <separator name="electronic" >
   <i type="string" name="PREC">accura</i>
   <i name="ENMAX">    600.00000000</i>
   <i name="ENAUG">    392.42700000</i>
   <i name="EDIFF">      0.00000010</i>
   <i type="int" name="IALGO">    38</i>
   <i type="int" name="IWAVPR">    10</i>
   <i type="int" name="NBANDS">    24</i>
   <i name="NELECT">     24.00000000</i>
   <i type="int" name="TURBO">     0</i>
   <i type="int" name="IRESTART">     0</i>
   <i type="int" name="NREBOOT">     0</i>
   <i type="int" name="NMIN">     0</i>
   <i name="EREF">      0.00000000</i>
   <separator name="electronic smearing" >
    <i type="int" name="ISMEAR">     0</i>
    <i name="SIGMA">      0.05000000</i>
    <i name="KSPACING">      0.50000000</i>
    <i type="logical" name="KGAMMA"> T  </i>
   </separator>
   <separator name="electronic projectors" >
    <i type="logical" name="LREAL"> F  </i>
    <v name="ROPT">      0.00000000      0.00000000</v>
    <i type="int" name="LMAXPAW">  -100</i>
    <i type="int" name="LMAXMIX">     2</i>
    <i type="logical" name="NLSPLINE"> F  </i>
   </separator>
   <separator name="electronic startup" >
    <i type="int" name="ISTART">     1</i>
    <i type="int" name="ICHARG">    11</i>
    <i type="int" name="INIWAV">     1</i>
   </separator>
   <separator name="electronic spin" >
    <i type="int" name="ISPIN">     2</i>
    <i type="logical" name="LNONCOLLINEAR"> F  </i>
    <v name="MAGMOM">      1.00000000      1.00000000      1.00000000</v>
    <i name="NUPDOWN">     -1.00000000</i>
    <i type="logical" name="LSORBIT"> F  </i>
    <v name="SAXIS">      0.00000000      0.00000000      1.00000000</v>
    <i type="logical" name="LSPIRAL"> F  </i>
    <v name="QSPIRAL">      0.00000000      0.00000000      0.00000000</v>
    <i type="logical" name="LZEROZ"> F  </i>
   </separator>
   <separator name="electronic exchange-correlation" >
    <i type="logical" name="LASPH"> F  </i>
    <i type="logical" name="LMETAGGA"> F  </i>
   </separator>
   <separator name="electronic convergence" >
    <i type="int" name="NELM">   200</i>
    <i type="int" name="NELMDL">     0</i>
    <i type="int" name="NELMIN">     2</i>
    <i name="ENINI">    600.00000000</i>
    <separator name="electronic convergence detail" >
     <i type="logical" name="LDIAG"> T  </i>
     <i type="logical" name="LSUBROT"> F  </i>
     <i name="WEIMIN">      0.00000000</i>
     <i name="EBREAK">      0.00000000</i>
     <i name="DEPER">      0.30000000</i>
     <i type="int" name="NRMM">     4</i>
     <i name="TIME">      0.40000000</i>
    </separator>
   </separator>
   <separator name="electronic mixer" >
    <i name="AMIX">      0.40000000</i>
    <i name="BMIX">      1.00000000</i>
    <i name="AMIN">      0.10000000</i>
    <i name="AMIX_MAG">      1.60000000</i>
    <i name="BMIX_MAG">      1.00000000</i>
    <separator name="electronic mixer details" >
     <i type="int" name="IMIX">     4</i>
     <i type="logical" name="MIXFIRST"> F  </i>
     <i type="int" name="MAXMIX">   -45</i>
     <i name="WC">    100.00000000</i>
     <i type="int" name="INIMIX">     1</i>
     <i type="int" name="MIXPRE">     1</i>
     <i type="int" name="MREMOVE">     5</i>
    </separator>
   </separator>
   <separator name="electronic dipolcorrection" >
    <i type="logical" name="LDIPOL"> T  </i>
    <i type="logical" name="LMONO"> F  </i>
    <i type="int" name="IDIPOL">     3</i>
    <i name="EPSILON">      1.00000000</i>
    <v name="DIPOL">      0.50000000      0.50000000      0.50000000</v>
    <i name="EFIELD">      0.00000000</i>
   </separator>
  </separator>
  <separator name="grids" >
   <i type="int" name="NGX">    28</i>
   <i type="int" name="NGY">    28</i>
   <i type="int" name="NGZ">   280</i>
   <i type="int" name="NGXF">    56</i>
   <i type="int" name="NGYF">    56</i>
   <i type="int" name="NGZF">   560</i>
   <i type="logical" name="ADDGRID"> F  </i>
  </separator>
  <separator name="ionic" >
   <i type="int" name="NSW">     0</i>
   <i type="int" name="IBRION">    -1</i>
   <i type="int" name="ISIF">     2</i>
   <i name="PSTRESS">      0.00000000</i>
   <i name="EDIFFG">      0.00000100</i>
   <i type="int" name="NFREE">     0</i>
   <i name="POTIM">      0.50000000</i>
   <i name="SMASS">     -3.00000000</i>
   <i name="SCALEE">      1.00000000</i>
  </separator>
  <separator name="ionic md" >
   <i name="TEBEG">      0.00010000</i>
   <i name="TEEND">      0.00010000</i>
   <i type="int" name="NBLOCK">     1</i>
   <i type="int" name="KBLOCK">     1</i>
   <i type="int" name="NPACO">   256</i>
   <i name="APACO">     16.00000000</i>
  </separator>
  <separator name="symmetry" >
   <i type="int" name="ISYM">     2</i>
   <i name="SYMPREC">      0.00001000</i>
  </separator>
  <separator name="dos" >
   <i type="logical" name="LORBIT"> F  </i>
   <v name="RWIGS">     -1.00000000     -1.00000000</v>
   <i type="int" name="NEDOS">  5000</i>
   <i name="EMIN">     10.00000000</i>
   <i name="EMAX">    -10.00000000</i>
   <i name="EFERMI">      0.00000000</i>
  </separator>
  <separator name="writing" >
   <i type="int" name="NWRITE">     2</i>
   <i type="logical" name="LWAVE"> T  </i>
   <i type="logical" name="LCHARG"> T  </i>
   <i type="logical" name="LPARD"> F  </i>
   <i type="logical" name="LVTOT"> F  </i>
   <i type="logical" name="LVHAR"> F  </i>
   <i type="logical" name="LELF"> F  </i>
   <i type="logical" name="LOPTICS"> F  </i>
   <v name="STM">      0.00000000      0.00000000      0.00000000      0.00000000      0.00000000      0.00000000      0.00000000</v>
  </separator>
  <separator name="performance" >
   <i type="int" name="NPAR">     8</i>
   <i type="int" name="NSIM">     4</i>
   <i type="int" name="NBLK">    -1</i>
   <i type="logical" name="LPLANE"> T  </i>
   <i type="logical" name="LSCALAPACK"> T  </i>
   <i type="logical" name="LSCAAWARE"> F  </i>
   <i type="logical" name="LSCALU"> F  </i>
   <i type="logical" name="LASYNC"> F  </i>
   <i type="logical" name="LORBITALREAL"> F  </i>
  </separator>
  <separator name="miscellaneous" >
   <i type="int" name="IDIOT">     3</i>
   <i type="logical" name="LMUSIC"> F  </i>
   <v name="POMASS">     95.94000000     32.06600000</v>
   <v name="DARWINR">      0.00000000      0.00000000</v>
   <v name="DARWINV">      1.00000000      1.00000000</v>
   <i type="logical" name="LCORR"> T  </i>
  </separator>
  <i type="logical" name="GGA_COMPAT"> T  </i>
  <i type="logical" name="LBERRY"> F  </i>
  <i type="int" name="ICORELEVEL">     0</i>
  <i type="logical" name="LDAU"> F  </i>
  <i type="int" name="I_CONSTRAINED_M">     0</i>
  <separator name="electronic exchange-correlation" >
   <i type="string" name="GGA">--</i>
   <i type="int" name="VOSKOWN">     0</i>
   <i type="logical" name="LHFCALC"> F  </i>
   <i type="string" name="PRECFOCK"></i>
   <i type="logical" name="LSYMGRAD"> F  </i>
   <i type="logical" name="LHFONE"> F  </i>
   <i type="logical" name="LRHFCALC"> F  </i>
   <i type="logical" name="LTHOMAS"> F  </i>
   <i type="logical" name="LMODELHF"> F  </i>
   <i name="ENCUT4O">     -1.00000000</i>
   <i type="int" name="EXXOEP">     0</i>
   <i type="int" name="FOURORBIT">     0</i>
   <i name="AEXX">      0.00000000</i>
   <i name="HFALPHA">      0.00000000</i>
   <i name="MCALPHA">      0.00000000</i>
   <i name="ALDAX">      1.00000000</i>
   <i name="AGGAX">      1.00000000</i>
   <i name="ALDAC">      1.00000000</i>
   <i name="AGGAC">      1.00000000</i>
   <i type="int" name="NKREDX">     1</i>
   <i type="int" name="NKREDY">     1</i>
   <i type="int" name="NKREDZ">     1</i>
   <i type="logical" name="SHIFTRED"> F  </i>
   <i type="logical" name="ODDONLY"> F  </i>
   <i type="logical" name="EVENONLY"> F  </i>
   <i type="int" name="LMAXFOCK">     0</i>
   <i type="int" name="NMAXFOCKAE">     0</i>
   <i type="logical" name="LFOCKAEDFT"> F  </i>
   <i name="HFSCREEN">      0.00000000</i>
   <i name="HFSCREENC">      0.00000000</i>
   <i type="int" name="NBANDSGWLOW">     0</i>
  </separator>
  <separator name="vdW DFT" >
   <i type="logical" name="LUSE_VDW"> F  </i>
   <i name="Zab_VDW">     -0.84910000</i>
   <i name="PARAM1">      0.12340000</i>
   <i name="PARAM2">      1.00000000</i>
   <i name="PARAM3">      0.00000000</i>
  </separator>
  <separator name="model GW" >
   <i type="int" name="MODEL_GW">     0</i>
   <i name="MODEL_EPS0">     63.11239540</i>
   <i name="MODEL_ALPHA">      1.00000000</i>
  </separator>
  <separator name="linear response parameters" >
   <i type="logical" name="LEPSILON"> F  </i>
   <i type="logical" name="LRPA"> F  </i>
   <i type="logical" name="LNABLA"> F  </i>
   <i type="logical" name="LVEL"> F  </i>
   <i type="int" name="KINTER">     0</i>
   <i name="CSHIFT">      0.10000000</i>
   <i name="OMEGAMAX">     -1.00000000</i>
   <i name="DEG_THRESHOLD">      0.00200000</i>
  </separator>
  <separator name="orbital magnetization" >
   <i type="logical" name="NUCIND"> F  </i>
   <v name="MAGPOS">      0.00000000      0.00000000      0.00000000</v>
   <i type="logical" name="LNICSALL"> T  </i>
   <i type="logical" name="ORBITALMAG"> F  </i>
   <i type="logical" name="LMAGBLOCH"> F  </i>
   <i type="logical" name="LCHIMAG"> F  </i>
   <i type="logical" name="LGAUGE"> T  </i>
   <i type="int" name="MAGATOM">     0</i>
   <v name="MAGDIPOL">      0.00000000      0.00000000      0.00000000</v>
   <v name="AVECCONST">      0.00000000      0.00000000      0.00000000</v>
  </separator>
  <separator name="response functions" >
   <i type="logical" name="LADDER"> F  </i>
   <i type="logical" name="LFXC"> F  </i>
   <i type="logical" name="LHARTREE"> T  </i>
   <i type="int" name="IBSE">     0</i>
   <v type="int" name="KPOINT">    -1     0     0     0</v>
   <i type="logical" name="LTCTE"> F  </i>
   <i type="logical" name="LTETE"> F  </i>
   <i type="logical" name="LTRIPLET"> F  </i>
   <i type="logical" name="LFXCEPS"> F  </i>
   <i type="logical" name="LFXHEG"> F  </i>
   <i type="int" name="NATURALO">     0</i>
   <i type="logical" name="L2ORDER"> F  </i>
   <i type="logical" name="LUSEW"> F  </i>
   <i name="ENCUTGW">     -2.00000000</i>
   <i name="ENCUTGWSOFT">     -2.00000000</i>
   <i name="ENCUTLF">     -1.00000000</i>
   <i type="int" name="LMAXMP2">    -1</i>
   <i name="SCISSOR">      0.00000000</i>
   <i type="int" name="NOMEGA">     0</i>
   <i type="int" name="NOMEGAR">     0</i>
   <i type="int" name="NBANDSGW">    -1</i>
   <i type="int" name="NBANDSO">    -1</i>
   <i type="int" name="NBANDSV">    -1</i>
   <i type="int" name="NELM">   200</i>
   <i type="int" name="NELMHF">     1</i>
   <i type="int" name="DIM">     3</i>
   <i type="int" name="ANTIRES">     0</i>
   <i name="OMEGAMAX">    -30.00000000</i>
   <i name="OMEGAMIN">    -30.00000000</i>
   <i name="OMEGATL">   -200.00000000</i>
   <i type="int" name="OMEGAGRID">     0</i>
   <i name="CSHIFT">     -0.10000000</i>
   <i type="logical" name="SELFENERGY"> F  </i>
   <i type="logical" name="LSPECTRAL"> F  </i>
   <i type="logical" name="LSPECTRALGW"> F  </i>
   <i type="logical" name="LSINGLES"> F  </i>
   <i type="logical" name="LFERMIGW"> F  </i>
   <i type="logical" name="ODDONLYGW"> F  </i>
   <i type="logical" name="EVENONLYGW"> F  </i>
   <i type="int" name="NKREDLFX">     1</i>
   <i type="int" name="NKREDLFY">     1</i>
   <i type="int" name="NKREDLFZ">     1</i>
   <i type="int" name="MAXMEM">  1800</i>
   <i type="int" name="TELESCOPE">     0</i>
   <i type="int" name="TAUPAR">     1</i>
   <i type="int" name="OMEGAPAR">    -1</i>
   <i name="LAMBDA">      1.00000000</i>
  </separator>
  <separator name="External order field" >
   <i name="OFIELD_KAPPA">      0.00000000</i>
   <v name="OFIELD_K">      0.00000000      0.00000000      0.00000000</v>
   <i name="OFIELD_Q6_NEAR">      0.00000000</i>
   <i name="OFIELD_Q6_FAR">      0.00000000</i>
   <i name="OFIELD_A">      0.00000000</i>
  </separator>
  <separator name="solvation model" >
   <i type="logical" name="LSOL"> F  </i>
  </separator>
 </parameters>
 <atominfo>
  <atoms>       3 </atoms>
  <types>       2 </types>
  <array name="atoms" >
   <dimension dim="1">ion</dimension>
   <field type="string">element</field>
   <field type="int">atomtype</field>
   <set>
    <rc><c>Mo</c><c>   1</c></rc>
    <rc><c>S </c><c>   2</c></rc>
    <rc><c>S </c><c>   2</c></rc>
   </set>
  </array>
  <array name="atomtypes" >
   <dimension dim="1">type</dimension>
   <field type="int">atomspertype</field>
   <field type="string">element</field>
   <field>mass</field>
   <field>valence</field>
   <field type="string">pseudopotential</field>
   <set>
    <rc><c>   1</c><c>Mo</c><c>     95.94000000</c><c>     12.00000000</c><c> PAW_PBE Mo_pv 08Apr2002                </c></rc>
    <rc><c>   2</c><c>S </c><c>     32.06600000</c><c>      6.00000000</c><c>  PAW_PBE S 17Jan2003                   </c></rc>
   </set>
  </array>
 </atominfo>
 <structure name="initialpos" >
  <crystal>
   <varray name="basis" >
    <v>       1.61415312      -2.79579451       0.00000000 </v>
    <v>       1.61415312       2.79579451       0.00000000 </v>
    <v>       0.00000000       0.00000000      34.96267827 </v>
   </varray>
   <i name="volume">    315.56197699 </i>
   <varray name="rec_basis" >
    <v>       0.30975996      -0.17884004       0.00000000 </v>
    <v>       0.30975996       0.17884004       0.00000000 </v>
    <v>       0.00000000       0.00000000       0.02860193 </v>
   </varray>
  </crystal>
  <varray name="positions" >
   <v>       0.66666700       0.33333300       0.10664700 </v>
   <v>       0.33333300       0.66666700       0.06198962 </v>
   <v>       0.33333300       0.66666700       0.15130538 </v>
  </varray>
 </structure>
 <calculation>
  <scstep>
   <time name="dav">   16.69   16.74</time>
   <time name="total">   17.05   17.11</time>
   <dipole>
    <v name="dipole">      0.00000000       0.00000000       0.25213250 </v>
    <i name="Tr[quadrupol]">    -55.61850772 </i>
    <i name="Echarged">      0.00000000 </i>
    <i name="Edipol_quadrupol">      0.00000000 </i>
    <i name="Eion">      0.00000000 </i>
   </dipole>
   <energy>
    <i name="alphaZ">     64.53319376 </i>
    <i name="ewald">  11561.09611740 </i>
    <i name="hartreedc"> -13128.05256248 </i>
    <i name="XCdc">     61.71857823 </i>
    <i name="pawpsdc">   1158.59693092 </i>
    <i name="pawaedc">  -1137.34941777 </i>
    <i name="eentropy">     -0.00000000 </i>
    <i name="bandstr">   -440.18111068 </i>
    <i name="atom">   1837.94417650 </i>
    <i name="e_fr_energy">    -21.69409412 </i>
    <i name="e_wo_entrp">    -21.69409412 </i>
    <i name="e_0_energy">    -21.69409412 </i>
   </energy>
  </scstep>
  <scstep>
   <time name="dav">   15.58   15.59</time>
   <time name="total">   15.59   15.59</time>
   <dipole>
    <v name="dipole">      0.00000000       0.00000000       0.25213250 </v>
    <i name="Tr[quadrupol]">    -55.61850772 </i>
    <i name="Echarged">      0.00000000 </i>
    <i name="Edipol_quadrupol">      0.00000000 </i>
    <i name="Eion">      0.00000000 </i>
   </dipole>
   <energy>
    <i name="e_fr_energy">    -21.69409447 </i>
    <i name="e_wo_entrp">    -21.69409447 </i>
    <i name="e_0_energy">    -21.69409447 </i>
   </energy>
  </scstep>
  <scstep>
   <time name="dav">   13.81   13.81</time>
   <time name="total">   13.81   13.82</time>
   <dipole>
    <v name="dipole">      0.00000000       0.00000000       0.25213250 </v>
    <i name="Tr[quadrupol]">    -55.61850772 </i>
    <i name="Echarged">      0.00000000 </i>
    <i name="Edipol_quadrupol">      0.00000000 </i>
    <i name="Eion">      0.00000000 </i>
   </dipole>
   <energy>
    <i name="alphaZ">     64.53319376 </i>
    <i name="ewald">  11561.09611740 </i>
    <i name="hartreedc"> -13128.05256248 </i>
    <i name="XCdc">     61.71857823 </i>
    <i name="pawpsdc">   1158.59693092 </i>
    <i name="pawaedc">  -1137.34941777 </i>
    <i name="eentropy">     -0.00000000 </i>
    <i name="bandstr">   -440.18111104 </i>
    <i name="atom">   1837.94417650 </i>
    <i name="e_fr_energy">    -21.69409447 </i>
    <i name="e_wo_entrp">    -21.69409447 </i>
    <i name="e_0_energy">    -21.69409447 </i>
   </energy>
  </scstep>
  <structure>
   <crystal>
    <varray name="basis" >
     <v>       1.61415312      -2.79579451       0.00000000 </v>
     <v>       1.61415312       2.79579451       0.00000000 </v>
     <v>       0.00000000       0.00000000      34.96267827 </v>
    </varray>
    <i name="volume">    315.56197699 </i>
    <varray name="rec_basis" >
     <v>       0.30975996      -0.17884004       0.00000000 </v>
     <v>       0.30975996       0.17884004       0.00000000 </v>
     <v>       0.00000000       0.00000000       0.02860193 </v>
    </varray>
   </crystal>
   <varray name="positions" >
    <v>       0.66666700       0.33333300       0.10664700 </v>
    <v>       0.33333300       0.66666700       0.06198962 </v>
    <v>       0.33333300       0.66666700       0.15130538 </v>
   </varray>
  </structure>
  <varray name="forces" >
   <v>      -0.00000000      -0.00000000       0.00000000 </v>
   <v>       0.00000000       0.00000000       0.19353358 </v>
   <v>       0.00000000       0.00000000      -0.19353358 </v>
  </varray>
  <varray name="stress" >
   <v>      -6.02173787       0.00000000      -0.00000000 </v>
   <v>       0.00000000      -6.02173480       0.00000000 </v>
   <v>       0.00000000       0.00000000      -1.00757804 </v>
  </varray>
  <energy>
   <i name="e_fr_energy">    -21.69409447 </i>
   <i name="e_wo_entrp">    -21.69409447 </i>
   <i name="e_0_energy">     -0.00000000 </i>
  </energy>
  <time name="totalsc">   59.53   59.65</time>
  <eigenvalues>
   <array>
    <dimension dim="1">band</dimension>
    <dimension dim="2">kpoint</dimension>
    <dimension dim="3">spin</dimension>
    <field>eigene</field>
    <field>occ</field>
    <set>
     <set comment="spin 1">
      <set comment="kpoint 1">
       <r>  -40.9354    1.0000 </r>
       <r>  -40.7823    1.0000 </r>
       <r>  -40.7823    1.0000 </r>
       <r>  -19.8357    1.0000 </r>
       <r>  -18.4922    1.0000 </r>
       <r>  -11.3344    1.0000 </r>
       <r>   -8.4955    1.0000 </r>
       <r>   -8.4955    1.0000 </r>
       <r>   -7.5010    1.0000 </r>
       <r>   -7.4017    1.0000 </r>
       <r>   -7.4016    1.0000 </r>
       <r>   -5.7613    1.0000 </r>
       <r>   -3.2614    0.0000 </r>
       <r>   -3.2614    0.0000 </r>
       <r>   -2.9201    0.0000 </r>
       <r>   -2.9201    0.0000 </r>
       <r>   -0.0052    0.0000 </r>
       <r>    0.5451    0.0000 </r>
       <r>    1.7016    0.0000 </r>
       <r>    2.0186    0.0000 </r>
       <r>    2.3962    0.0000 </r>
       <r>    2.9608    0.0000 </r>
       <r>    3.0272    0.0000 </r>
       <r>    3.4922    0.0000 </r>
      </set>
      <set comment="kpoint 2">
       <r>  -40.9343    1.0000 </r>
       <r>  -40.7878    1.0000 </r>
       <r>  -40.7835    1.0000 </r>
       <r>  -19.8117    1.0000 </r>
       <r>  -18.4819    1.0000 </r>
       <r>  -11.3061    1.0000 </r>
       <r>   -8.5529    1.0000 </r>
       <r>   -8.4705    1.0000 </r>
       <r>   -7.7387    1.0000 </r>
       <r>   -7.4416    1.0000 </r>
       <r>   -7.1997    1.0000 </r>
       <r>   -5.7754    1.0000 </r>
       <r>   -3.3025    0.0000 </r>
       <r>   -3.2298    0.0000 </r>
       <r>   -2.9860    0.0000 </r>
       <r>   -2.9354    0.0000 </r>
       <r>    0.0891    0.0000 </r>
       <r>    0.6076    0.0000 </r>
       <r>    1.7357    0.0000 </r>
       <r>    2.0512    0.0000 </r>
       <r>    2.4293    0.0000 </r>
       <r>    2.9985    0.0000 </r>
       <r>    3.1445    0.0000 </r>
       <r>    3.5248    0.0000 </r>
      </set>
      <set comment="kpoint 3">
       <r>  -40.9312    1.0000 </r>
       <r>  -40.8040    1.0000 </r>
       <r>  -40.7872    1.0000 </r>
       <r>  -19.7406    1.0000 </r>
       <r>  -18.4514    1.0000 </r>
       <r>  -11.2239    1.0000 </r>
       <r>   -8.7143    1.0000 </r>
       <r>   -8.3972    1.0000 </r>
       <r>   -8.0381    1.0000 </r>
       <r>   -7.5532    1.0000 </r>
       <r>   -7.0155    1.0000 </r>
       <r>   -5.8235    1.0000 </r>
       <r>   -3.3987    0.0000 </r>
       <r>   -3.1828    0.0000 </r>
       <r>   -3.1466    0.0000 </r>
       <r>   -2.9377    0.0000 </r>
       <r>    0.3096    0.0000 </r>
       <r>    0.8206    0.0000 </r>
       <r>    1.8378    0.0000 </r>
       <r>    2.1460    0.0000 </r>
       <r>    2.5280    0.0000 </r>
       <r>    3.0986    0.0000 </r>
       <r>    3.4759    0.0000 </r>
       <r>    3.6225    0.0000 </r>
      </set>
      <set comment="kpoint 4">
       <r>  -40.9263    1.0000 </r>
       <r>  -40.8297    1.0000 </r>
       <r>  -40.7931    1.0000 </r>
       <r>  -19.6254    1.0000 </r>
       <r>  -18.4017    1.0000 </r>
       <r>  -11.0972    1.0000 </r>
       <r>   -8.9507    1.0000 </r>
       <r>   -8.3482    1.0000 </r>
       <r>   -8.2823    1.0000 </r>
       <r>   -7.7141    1.0000 </r>
       <r>   -6.9181    1.0000 </r>
       <r>   -5.9197    1.0000 </r>
       <r>   -3.5025    0.0000 </r>
       <r>   -3.3085    0.0000 </r>
       <r>   -3.2360    0.0000 </r>
       <r>   -2.8212    0.0000 </r>
       <r>    0.5489    0.0000 </r>
       <r>    1.2033    0.0000 </r>
       <r>    2.0087    0.0000 </r>
       <r>    2.3018    0.0000 </r>
       <r>    2.6913    0.0000 </r>
       <r>    3.2613    0.0000 </r>
       <r>    3.7787    0.0000 </r>
       <r>    3.9160    0.0000 </r>
      </set>
      <set comment="kpoint 5">
       <r>  -40.9198    1.0000 </r>
       <r>  -40.8629    1.0000 </r>
       <r>  -40.8008    1.0000 </r>
       <r>  -19.4711    1.0000 </r>
       <r>  -18.3348    1.0000 </r>
       <r>  -10.9453    1.0000 </r>
       <r>   -9.2230    1.0000 </r>
       <r>   -8.6626    1.0000 </r>
       <r>   -8.1510    1.0000 </r>
       <r>   -7.8828    1.0000 </r>
       <r>   -6.9218    1.0000 </r>
       <r>   -6.0765    1.0000 </r>
       <r>   -3.6098    0.0000 </r>
       <r>   -3.3558    0.0000 </r>
       <r>   -3.3487    0.0000 </r>
       <r>   -2.6294    0.0000 </r>
       <r>    0.7900    0.0000 </r>
       <r>    1.6450    0.0000 </r>
       <r>    2.2484    0.0000 </r>
       <r>    2.5363    0.0000 </r>
       <r>    2.9189    0.0000 </r>
       <r>    3.4847    0.0000 </r>
       <r>    3.9292    0.0000 </r>
       <r>    4.0265    0.0000 </r>
      </set>
      <set comment="kpoint 6">
       <r>  -40.9123    1.0000 </r>
       <r>  -40.9014    1.0000 </r>
       <r>  -40.8097    1.0000 </r>
       <r>  -19.2851    1.0000 </r>
       <r>  -18.2536    1.0000 </r>
       <r>  -10.8055    1.0000 </r>
       <r>   -9.4842    1.0000 </r>
       <r>   -8.9763    1.0000 </r>
       <r>   -8.1813    1.0000 </r>
       <r>   -7.8709    1.0000 </r>
       <r>   -7.0107    1.0000 </r>
       <r>   -6.2855    1.0000 </r>
       <r>   -3.6865    0.0000 </r>
       <r>   -3.4885    0.0000 </r>
       <r>   -3.2445    0.0000 </r>
       <r>   -2.4229    0.0000 </r>
       <r>    1.0489    0.0000 </r>
       <r>    1.9866    0.0000 </r>
       <r>    2.5360    0.0000 </r>
       <r>    2.8423    0.0000 </r>
       <r>    3.2121    0.0000 </r>
       <r>    3.6508    0.0000 </r>
       <r>    3.7801    0.0000 </r>
       <r>    3.9942    0.0000 </r>
      </set>
      <set comment="kpoint 7">
       <r>  -40.9425    1.0000 </r>
       <r>  -40.9042    1.0000 </r>
       <r>  -40.8192    1.0000 </r>
       <r>  -19.0768    1.0000 </r>
       <r>  -18.1616    1.0000 </r>
       <r>  -10.7424    1.0000 </r>
       <r>   -9.6779    1.0000 </r>
       <r>   -9.2797    1.0000 </r>
       <r>   -8.3615    1.0000 </r>
       <r>   -7.6869    1.0000 </r>
       <r>   -7.1466    1.0000 </r>
       <r>   -6.5073    1.0000 </r>
       <r>   -3.6988    0.0000 </r>
       <r>   -3.6102    0.0000 </r>
       <r>   -3.0473    0.0000 </r>
       <r>   -2.2287    0.0000 </r>
       <r>    1.3204    0.0000 </r>
       <r>    2.1909    0.0000 </r>
       <r>    2.8060    0.0000 </r>
       <r>    2.9306    0.0000 </r>
       <r>    3.3815    0.0000 </r>
       <r>    3.6447    0.0000 </r>
       <r>    3.8055    0.0000 </r>
       <r>    4.1626    0.0000 </r>
      </set>
      <set comment="kpoint 8">
       <r>  -40.9832    1.0000 </r>
       <r>  -40.8961    1.0000 </r>
       <r>  -40.8287    1.0000 </r>
       <r>  -18.8584    1.0000 </r>
       <r>  -18.0635    1.0000 </r>
       <r>  -10.8125    1.0000 </r>
       <r>   -9.7882    1.0000 </r>
       <r>   -9.5406    1.0000 </r>
       <r>   -8.5423    1.0000 </r>
       <r>   -7.4838    1.0000 </r>
       <r>   -7.2914    1.0000 </r>
       <r>   -6.6824    1.0000 </r>
       <r>   -3.7063    0.0000 </r>
       <r>   -3.6549    0.0000 </r>
       <r>   -2.8050    0.0000 </r>
       <r>   -2.0609    0.0000 </r>
       <r>    1.5750    0.0000 </r>
       <r>    2.2656    0.0000 </r>
       <r>    2.5125    0.0000 </r>
       <r>    3.0130    0.0000 </r>
       <r>    3.4082    0.0000 </r>
       <r>    3.9435    0.0000 </r>
       <r>    4.0870    0.0000 </r>
       <r>    4.5748    0.0000 </r>
      </set>
      <set comment="kpoint 9">
       <r>  -41.0209    1.0000 </r>
       <r>  -40.8886    1.0000 </r>
       <r>  -40.8376    1.0000 </r>
       <r>  -18.6451    1.0000 </r>
       <r>  -17.9648    1.0000 </r>
       <r>  -10.9823    1.0000 </r>
       <r>   -9.9477    1.0000 </r>
       <r>   -9.6665    1.0000 </r>
       <r>   -8.7015    1.0000 </r>
       <r>   -7.4210    1.0000 </r>
       <r>   -7.2920    1.0000 </r>
       <r>   -6.7581    1.0000 </r>
       <r>   -3.7690    0.0000 </r>
       <r>   -3.5749    0.0000 </r>
       <r>   -2.5593    0.0000 </r>
       <r>   -1.9259    0.0000 </r>
       <r>    1.6833    0.0000 </r>
       <r>    1.9819    0.0000 </r>
       <r>    2.3538    0.0000 </r>
       <r>    2.9978    0.0000 </r>
       <r>    3.7771    0.0000 </r>
       <r>    4.1841    0.0000 </r>
       <r>    4.5086    0.0000 </r>
       <r>    5.0115    0.0000 </r>
      </set>
      <set comment="kpoint 10">
       <r>  -41.0530    1.0000 </r>
       <r>  -40.8821    1.0000 </r>
       <r>  -40.8452    1.0000 </r>
       <r>  -18.4540    1.0000 </r>
       <r>  -17.8722    1.0000 </r>
       <r>  -11.1762    1.0000 </r>
       <r>  -10.1569    1.0000 </r>
       <r>   -9.7136    1.0000 </r>
       <r>   -8.8311    1.0000 </r>
       <r>   -7.5245    1.0000 </r>
       <r>   -7.1290    1.0000 </r>
       <r>   -6.7211    1.0000 </r>
       <r>   -3.7983    0.0000 </r>
       <r>   -3.4784    0.0000 </r>
       <r>   -2.3439    0.0000 </r>
       <r>   -1.8248    0.0000 </r>
       <r>    1.2367    0.0000 </r>
       <r>    1.9976    0.0000 </r>
       <r>    2.3017    0.0000 </r>
       <r>    3.1374    0.0000 </r>
       <r>    4.1024    0.0000 </r>
       <r>    4.4328    0.0000 </r>
       <r>    4.9280    0.0000 </r>
       <r>    5.3768    0.0000 </r>
      </set>
      <set comment="kpoint 11">
       <r>  -41.0776    1.0000 </r>
       <r>  -40.8771    1.0000 </r>
       <r>  -40.8510    1.0000 </r>
       <r>  -18.3032    1.0000 </r>
       <r>  -17.7939    1.0000 </r>
       <r>  -11.3442    1.0000 </r>
       <r>  -10.3305    1.0000 </r>
       <r>   -9.7649    1.0000 </r>
       <r>   -8.9263    1.0000 </r>
       <r>   -7.5980    1.0000 </r>
       <r>   -7.0070    1.0000 </r>
       <r>   -6.6120    1.0000 </r>
       <r>   -3.8024    0.0000 </r>
       <r>   -3.3838    0.0000 </r>
       <r>   -2.1819    0.0000 </r>
       <r>   -1.7558    0.0000 </r>
       <r>    0.7399    0.0000 </r>
       <r>    2.0316    0.0000 </r>
       <r>    2.3410    0.0000 </r>
       <r>    3.2902    0.0000 </r>
       <r>    4.2046    0.0000 </r>
       <r>    4.7602    0.0000 </r>
       <r>    5.2718    0.0000 </r>
       <r>    5.8003    0.0000 </r>
      </set>
      <set comment="kpoint 12">
       <r>  -41.0930    1.0000 </r>
       <r>  -40.8739    1.0000 </r>
       <r>  -40.8547    1.0000 </r>
       <r>  -18.2072    1.0000 </r>
       <r>  -17.7400    1.0000 </r>
       <r>  -11.4566    1.0000 </r>
       <r>  -10.4420    1.0000 </r>
       <r>   -9.8102    1.0000 </r>
       <r>   -8.9845    1.0000 </r>
       <r>   -7.6413    1.0000 </r>
       <r>   -6.9324    1.0000 </r>
       <r>   -6.5029    1.0000 </r>
       <r>   -3.7953    0.0000 </r>
       <r>   -3.3115    0.0000 </r>
       <r>   -2.0842    0.0000 </r>
       <r>   -1.7160    0.0000 </r>
       <r>    0.3875    0.0000 </r>
       <r>    2.0437    0.0000 </r>
       <r>    2.4196    0.0000 </r>
       <r>    3.3483    0.0000 </r>
       <r>    4.2137    0.0000 </r>
       <r>    4.9991    0.0000 </r>
       <r>    5.4245    0.0000 </r>
       <r>    5.7266    0.0000 </r>
      </set>
      <set comment="kpoint 13">
       <r>  -41.0982    1.0000 </r>
       <r>  -40.8729    1.0000 </r>
       <r>  -40.8559    1.0000 </r>
       <r>  -18.1744    1.0000 </r>
       <r>  -17.7205    1.0000 </r>
       <r>  -11.4961    1.0000 </r>
       <r>  -10.4803    1.0000 </r>
       <r>   -9.8282    1.0000 </r>
       <r>   -9.0041    1.0000 </r>
       <r>   -7.6555    1.0000 </r>
       <r>   -6.9074    1.0000 </r>
       <r>   -6.4579    1.0000 </r>
       <r>   -3.7911    0.0000 </r>
       <r>   -3.2837    0.0000 </r>
       <r>   -2.0520    0.0000 </r>
       <r>   -1.7031    0.0000 </r>
       <r>    0.2593    0.0000 </r>
       <r>    2.0511    0.0000 </r>
       <r>    2.4558    0.0000 </r>
       <r>    3.3518    0.0000 </r>
       <r>    4.2008    0.0000 </r>
       <r>    5.1438    0.0000 </r>
       <r>    5.3475    0.0000 </r>
       <r>    5.8899    0.0000 </r>
      </set>
      <set comment="kpoint 14">
       <r>  -40.9323    1.0000 </r>
       <r>  -40.7986    1.0000 </r>
       <r>  -40.7861    1.0000 </r>
       <r>  -19.7641    1.0000 </r>
       <r>  -18.4615    1.0000 </r>
       <r>  -11.2508    1.0000 </r>
       <r>   -8.6619    1.0000 </r>
       <r>   -8.4219    1.0000 </r>
       <r>   -7.9531    1.0000 </r>
       <r>   -7.5255    1.0000 </r>
       <r>   -7.0522    1.0000 </r>
       <r>   -5.8065    1.0000 </r>
       <r>   -3.3739    0.0000 </r>
       <r>   -3.1877    0.0000 </r>
       <r>   -3.0987    0.0000 </r>
       <r>   -2.9447    0.0000 </r>
       <r>    0.2457    0.0000 </r>
       <r>    0.7461    0.0000 </r>
       <r>    1.8037    0.0000 </r>
       <r>    2.1147    0.0000 </r>
       <r>    2.4952    0.0000 </r>
       <r>    3.0657    0.0000 </r>
       <r>    3.3713    0.0000 </r>
       <r>    3.5899    0.0000 </r>
      </set>
      <set comment="kpoint 15">
       <r>  -40.9282    1.0000 </r>
       <r>  -40.8193    1.0000 </r>
       <r>  -40.7911    1.0000 </r>
       <r>  -19.6709    1.0000 </r>
       <r>  -18.4214    1.0000 </r>
       <r>  -11.1460    1.0000 </r>
       <r>   -8.8592    1.0000 </r>
       <r>   -8.3312    1.0000 </r>
       <r>   -8.2244    1.0000 </r>
       <r>   -7.6809    1.0000 </r>
       <r>   -6.9216    1.0000 </r>
       <r>   -5.8786    1.0000 </r>
       <r>   -3.4762    0.0000 </r>
       <r>   -3.2637    0.0000 </r>
       <r>   -3.2057    0.0000 </r>
       <r>   -2.8664    0.0000 </r>
       <r>    0.4672    0.0000 </r>
       <r>    1.0551    0.0000 </r>
       <r>    1.9401    0.0000 </r>
       <r>    2.2387    0.0000 </r>
       <r>    2.6262    0.0000 </r>
       <r>    3.1966    0.0000 </r>
       <r>    3.7147    0.0000 </r>
       <r>    3.7696    0.0000 </r>
      </set>
      <set comment="kpoint 16">
       <r>  -40.9225    1.0000 </r>
       <r>  -40.8485    1.0000 </r>
       <r>  -40.7981    1.0000 </r>
       <r>  -19.5362    1.0000 </r>
       <r>  -18.3631    1.0000 </r>
       <r>  -11.0052    1.0000 </r>
       <r>   -9.1112    1.0000 </r>
       <r>   -8.5206    1.0000 </r>
       <r>   -8.2055    1.0000 </r>
       <r>   -7.8683    1.0000 </r>
       <r>   -6.8705    1.0000 </r>
       <r>   -6.0054    1.0000 </r>
       <r>   -3.5783    0.0000 </r>
       <r>   -3.3777    0.0000 </r>
       <r>   -3.3066    0.0000 </r>
       <r>   -2.6876    0.0000 </r>
       <r>    0.6979    0.0000 </r>
       <r>    1.4880    0.0000 </r>
       <r>    2.1461    0.0000 </r>
       <r>    2.4297    0.0000 </r>
       <r>    2.8215    0.0000 </r>
       <r>    3.3901    0.0000 </r>
       <r>    3.8999    0.0000 </r>
       <r>    4.0957    0.0000 </r>
      </set>
      <set comment="kpoint 17">
       <r>  -40.9155    1.0000 </r>
       <r>  -40.8840    1.0000 </r>
       <r>  -40.8068    1.0000 </r>
       <r>  -19.3659    1.0000 </r>
       <r>  -18.2889    1.0000 </r>
       <r>  -10.8555    1.0000 </r>
       <r>   -9.3756    1.0000 </r>
       <r>   -8.8226    1.0000 </r>
       <r>   -8.1764    1.0000 </r>
       <r>   -7.9464    1.0000 </r>
       <r>   -6.9115    1.0000 </r>
       <r>   -6.1898    1.0000 </r>
       <r>   -3.6778    0.0000 </r>
       <r>   -3.4303    0.0000 </r>
       <r>   -3.3484    0.0000 </r>
       <r>   -2.4774    0.0000 </r>
       <r>    0.9465    0.0000 </r>
       <r>    1.8927    0.0000 </r>
       <r>    2.4134    0.0000 </r>
       <r>    2.7134    0.0000 </r>
       <r>    3.0820    0.0000 </r>
       <r>    3.6375    0.0000 </r>
       <r>    3.8152    0.0000 </r>
       <r>    4.1139    0.0000 </r>
      </set>
      <set comment="kpoint 18">
       <r>  -40.9234    1.0000 </r>
       <r>  -40.9077    1.0000 </r>
       <r>  -40.8164    1.0000 </r>
       <r>  -19.1685    1.0000 </r>
       <r>  -18.2020    1.0000 </r>
       <r>  -10.7476    1.0000 </r>
       <r>   -9.5999    1.0000 </r>
       <r>   -9.1288    1.0000 </r>
       <r>   -8.3483    1.0000 </r>
       <r>   -7.7968    1.0000 </r>
       <r>   -7.0222    1.0000 </r>
       <r>   -6.4071    1.0000 </r>
       <r>   -3.7389    0.0000 </r>
       <r>   -3.5359    0.0000 </r>
       <r>   -3.2022    0.0000 </r>
       <r>   -2.2712    0.0000 </r>
       <r>    1.2162    0.0000 </r>
       <r>    2.1618    0.0000 </r>
       <r>    2.7109    0.0000 </r>
       <r>    2.9650    0.0000 </r>
       <r>    3.3850    0.0000 </r>
       <r>    3.5838    0.0000 </r>
       <r>    3.8544    0.0000 </r>
       <r>    4.0233    0.0000 </r>
      </set>
      <set comment="kpoint 19">
       <r>  -40.9638    1.0000 </r>
       <r>  -40.8996    1.0000 </r>
       <r>  -40.8264    1.0000 </r>
       <r>  -18.9548    1.0000 </r>
       <r>  -18.1066    1.0000 </r>
       <r>  -10.7514    1.0000 </r>
       <r>   -9.7353    1.0000 </r>
       <r>   -9.4207    1.0000 </r>
       <r>   -8.5284    1.0000 </r>
       <r>   -7.6169    1.0000 </r>
       <r>   -7.1640    1.0000 </r>
       <r>   -6.6039    1.0000 </r>
       <r>   -3.7654    0.0000 </r>
       <r>   -3.5942    0.0000 </r>
       <r>   -2.9842    0.0000 </r>
       <r>   -2.0888    0.0000 </r>
       <r>    1.4910    0.0000 </r>
       <r>    2.3095    0.0000 </r>
       <r>    2.7315    0.0000 </r>
       <r>    3.0216    0.0000 </r>
       <r>    3.3764    0.0000 </r>
       <r>    3.8249    0.0000 </r>
       <r>    3.9324    0.0000 </r>
       <r>    4.3834    0.0000 </r>
      </set>
      <set comment="kpoint 20">
       <r>  -41.0026    1.0000 </r>
       <r>  -40.8918    1.0000 </r>
       <r>  -40.8359    1.0000 </r>
       <r>  -18.7383    1.0000 </r>
       <r>  -18.0077    1.0000 </r>
       <r>  -10.8803    1.0000 </r>
       <r>   -9.8489    1.0000 </r>
       <r>   -9.6250    1.0000 </r>
       <r>   -8.6838    1.0000 </r>
       <r>   -7.4613    1.0000 </r>
       <r>   -7.2961    1.0000 </r>
       <r>   -6.7172    1.0000 </r>
       <r>   -3.7854    0.0000 </r>
       <r>   -3.5812    0.0000 </r>
       <r>   -2.7379    0.0000 </r>
       <r>   -1.9419    0.0000 </r>
       <r>    1.7227    0.0000 </r>
       <r>    2.1862    0.0000 </r>
       <r>    2.4412    0.0000 </r>
       <r>    3.0333    0.0000 </r>
       <r>    3.6039    0.0000 </r>
       <r>    4.0953    0.0000 </r>
       <r>    4.3118    0.0000 </r>
       <r>    4.8157    0.0000 </r>
      </set>
      <set comment="kpoint 21">
       <r>  -41.0372    1.0000 </r>
       <r>  -40.8848    1.0000 </r>
       <r>  -40.8445    1.0000 </r>
       <r>  -18.5353    1.0000 </r>
       <r>  -17.9114    1.0000 </r>
       <r>  -11.0666    1.0000 </r>
       <r>  -10.0591    1.0000 </r>
       <r>   -9.6863    1.0000 </r>
       <r>   -8.8091    1.0000 </r>
       <r>   -7.4610    1.0000 </r>
       <r>   -7.2833    1.0000 </r>
       <r>   -6.7126    1.0000 </r>
       <r>   -3.7962    0.0000 </r>
       <r>   -3.5162    0.0000 </r>
       <r>   -2.4984    0.0000 </r>
       <r>   -1.8373    0.0000 </r>
       <r>    1.5385    0.0000 </r>
       <r>    2.0136    0.0000 </r>
       <r>    2.3886    0.0000 </r>
       <r>    3.0938    0.0000 </r>
       <r>    3.9896    0.0000 </r>
       <r>    4.3154    0.0000 </r>
       <r>    4.7476    0.0000 </r>
       <r>    5.2242    0.0000 </r>
      </set>
      <set comment="kpoint 22">
       <r>  -41.0653    1.0000 </r>
       <r>  -40.8790    1.0000 </r>
       <r>  -40.8515    1.0000 </r>
       <r>  -18.3637    1.0000 </r>
       <r>  -17.8249    1.0000 </r>
       <r>  -11.2477    1.0000 </r>
       <r>  -10.2625    1.0000 </r>
       <r>   -9.7329    1.0000 </r>
       <r>   -8.9034    1.0000 </r>
       <r>   -7.5515    1.0000 </r>
       <r>   -7.1773    1.0000 </r>
       <r>   -6.6182    1.0000 </r>
       <r>   -3.7933    0.0000 </r>
       <r>   -3.4283    0.0000 </r>
       <r>   -2.2910    0.0000 </r>
       <r>   -1.7772    0.0000 </r>
       <r>    1.0116    0.0000 </r>
       <r>    2.0991    0.0000 </r>
       <r>    2.3864    0.0000 </r>
       <r>    3.2506    0.0000 </r>
       <r>    4.1981    0.0000 </r>
       <r>    4.6231    0.0000 </r>
       <r>    5.1067    0.0000 </r>
       <r>    5.5414    0.0000 </r>
      </set>
      <set comment="kpoint 23">
       <r>  -41.0850    1.0000 </r>
       <r>  -40.8750    1.0000 </r>
       <r>  -40.8564    1.0000 </r>
       <r>  -18.2399    1.0000 </r>
       <r>  -17.7575    1.0000 </r>
       <r>  -11.3871    1.0000 </r>
       <r>  -10.4110    1.0000 </r>
       <r>   -9.7852    1.0000 </r>
       <r>   -8.9664    1.0000 </r>
       <r>   -7.6175    1.0000 </r>
       <r>   -7.0919    1.0000 </r>
       <r>   -6.4983    1.0000 </r>
       <r>   -3.7857    0.0000 </r>
       <r>   -3.3409    0.0000 </r>
       <r>   -2.1325    0.0000 </r>
       <r>   -1.7582    0.0000 </r>
       <r>    0.5743    0.0000 </r>
       <r>    2.1388    0.0000 </r>
       <r>    2.4625    0.0000 </r>
       <r>    3.3509    0.0000 </r>
       <r>    4.2409    0.0000 </r>
       <r>    4.8809    0.0000 </r>
       <r>    5.3374    0.0000 </r>
       <r>    5.5343    0.0000 </r>
      </set>
      <set comment="kpoint 24">
       <r>  -41.0953    1.0000 </r>
       <r>  -40.8729    1.0000 </r>
       <r>  -40.8590    1.0000 </r>
       <r>  -18.1755    1.0000 </r>
       <r>  -17.7199    1.0000 </r>
       <r>  -11.4625    1.0000 </r>
       <r>  -10.4886    1.0000 </r>
       <r>   -9.8198    1.0000 </r>
       <r>   -8.9980    1.0000 </r>
       <r>   -7.6510    1.0000 </r>
       <r>   -7.0457    1.0000 </r>
       <r>   -6.4167    1.0000 </r>
       <r>   -3.7812    0.0000 </r>
       <r>   -3.2835    0.0000 </r>
       <r>   -2.0398    0.0000 </r>
       <r>   -1.7639    0.0000 </r>
       <r>    0.3265    0.0000 </r>
       <r>    2.1636    0.0000 </r>
       <r>    2.5314    0.0000 </r>
       <r>    3.3663    0.0000 </r>
       <r>    4.2234    0.0000 </r>
       <r>    5.0386    0.0000 </r>
       <r>    5.2809    0.0000 </r>
       <r>    5.8866    0.0000 </r>
      </set>
      <set comment="kpoint 25">
       <r>  -40.9235    1.0000 </r>
       <r>  -40.8432    1.0000 </r>
       <r>  -40.7976    1.0000 </r>
       <r>  -19.5582    1.0000 </r>
       <r>  -18.3726    1.0000 </r>
       <r>  -11.0261    1.0000 </r>
       <r>   -9.0696    1.0000 </r>
       <r>   -8.4569    1.0000 </r>
       <r>   -8.2272    1.0000 </r>
       <r>   -7.8916    1.0000 </r>
       <r>   -6.8354    1.0000 </r>
       <r>   -5.9813    1.0000 </r>
       <r>   -3.5769    0.0000 </r>
       <r>   -3.3882    0.0000 </r>
       <r>   -3.2929    0.0000 </r>
       <r>   -2.6965    0.0000 </r>
       <r>    0.6681    0.0000 </r>
       <r>    1.4349    0.0000 </r>
       <r>    2.1114    0.0000 </r>
       <r>    2.3943    0.0000 </r>
       <r>    2.7890    0.0000 </r>
       <r>    3.3584    0.0000 </r>
       <r>    3.8733    0.0000 </r>
       <r>    4.1554    0.0000 </r>
      </set>
      <set comment="kpoint 26">
       <r>  -40.9172    1.0000 </r>
       <r>  -40.8740    1.0000 </r>
       <r>  -40.8063    1.0000 </r>
       <r>  -19.4073    1.0000 </r>
       <r>  -18.3068    1.0000 </r>
       <r>  -10.8834    1.0000 </r>
       <r>   -9.3094    1.0000 </r>
       <r>   -8.7037    1.0000 </r>
       <r>   -8.2311    1.0000 </r>
       <r>   -8.0096    1.0000 </r>
       <r>   -6.8128    1.0000 </r>
       <r>   -6.1371    1.0000 </r>
       <r>   -3.6827    0.0000 </r>
       <r>   -3.4390    0.0000 </r>
       <r>   -3.3969    0.0000 </r>
       <r>   -2.4800    0.0000 </r>
       <r>    0.8996    0.0000 </r>
       <r>    1.8605    0.0000 </r>
       <r>    2.3498    0.0000 </r>
       <r>    2.6329    0.0000 </r>
       <r>    3.0166    0.0000 </r>
       <r>    3.5810    0.0000 </r>
       <r>    3.9171    0.0000 </r>
       <r>    4.1114    0.0000 </r>
      </set>
      <set comment="kpoint 27">
       <r>  -40.9103    1.0000 </r>
       <r>  -40.9093    1.0000 </r>
       <r>  -40.8164    1.0000 </r>
       <r>  -19.2254    1.0000 </r>
       <r>  -18.2268    1.0000 </r>
       <r>  -10.7558    1.0000 </r>
       <r>   -9.5324    1.0000 </r>
       <r>   -8.9795    1.0000 </r>
       <r>   -8.4417    1.0000 </r>
       <r>   -7.8894    1.0000 </r>
       <r>   -6.8692    1.0000 </r>
       <r>   -6.3330    1.0000 </r>
       <r>   -3.7792    0.0000 </r>
       <r>   -3.4858    0.0000 </r>
       <r>   -3.3659    0.0000 </r>
       <r>   -2.2594    0.0000 </r>
       <r>    1.1617    0.0000 </r>
       <r>    2.1958    0.0000 </r>
       <r>    2.6322    0.0000 </r>
       <r>    2.9491    0.0000 </r>
       <r>    3.3098    0.0000 </r>
       <r>    3.6699    0.0000 </r>
       <r>    3.8679    0.0000 </r>
       <r>    4.1529    0.0000 </r>
      </set>
      <set comment="kpoint 28">
       <r>  -40.9476    1.0000 </r>
       <r>  -40.9021    1.0000 </r>
       <r>  -40.8273    1.0000 </r>
       <r>  -19.0219    1.0000 </r>
       <r>  -18.1360    1.0000 </r>
       <r>  -10.7067    1.0000 </r>
       <r>   -9.6829    1.0000 </r>
       <r>   -9.2805    1.0000 </r>
       <r>   -8.6290    1.0000 </r>
       <r>   -7.7520    1.0000 </r>
       <r>   -6.9843    1.0000 </r>
       <r>   -6.5280    1.0000 </r>
       <r>   -3.8407    0.0000 </r>
       <r>   -3.5307    0.0000 </r>
       <r>   -3.2021    0.0000 </r>
       <r>   -2.0609    0.0000 </r>
       <r>    1.4463    0.0000 </r>
       <r>    2.4048    0.0000 </r>
       <r>    2.9099    0.0000 </r>
       <r>    3.0082    0.0000 </r>
       <r>    3.4988    0.0000 </r>
       <r>    3.7404    0.0000 </r>
       <r>    3.9225    0.0000 </r>
       <r>    4.2527    0.0000 </r>
      </set>
      <set comment="kpoint 29">
       <r>  -40.9852    1.0000 </r>
       <r>  -40.8943    1.0000 </r>
       <r>  -40.8382    1.0000 </r>
       <r>  -18.8091    1.0000 </r>
       <r>  -18.0390    1.0000 </r>
       <r>  -10.7817    1.0000 </r>
       <r>   -9.7633    1.0000 </r>
       <r>   -9.5553    1.0000 </r>
       <r>   -8.7672    1.0000 </r>
       <r>   -7.6479    1.0000 </r>
       <r>   -7.1245    1.0000 </r>
       <r>   -6.6591    1.0000 </r>
       <r>   -3.8557    0.0000 </r>
       <r>   -3.5382    0.0000 </r>
       <r>   -2.9808    0.0000 </r>
       <r>   -1.9016    0.0000 </r>
       <r>    1.7288    0.0000 </r>
       <r>    2.4725    0.0000 </r>
       <r>    2.6020    0.0000 </r>
       <r>    3.1719    0.0000 </r>
       <r>    3.5316    0.0000 </r>
       <r>    4.0400    0.0000 </r>
       <r>    4.1718    0.0000 </r>
       <r>    4.6585    0.0000 </r>
      </set>
      <set comment="kpoint 30">
       <r>  -41.0200    1.0000 </r>
       <r>  -40.8870    1.0000 </r>
       <r>  -40.8483    1.0000 </r>
       <r>  -18.6017    1.0000 </r>
       <r>  -17.9413    1.0000 </r>
       <r>  -10.9405    1.0000 </r>
       <r>   -9.9582    1.0000 </r>
       <r>   -9.6534    1.0000 </r>
       <r>   -8.8633    1.0000 </r>
       <r>   -7.5865    1.0000 </r>
       <r>   -7.2643    1.0000 </r>
       <r>   -6.6777    1.0000 </r>
       <r>   -3.8274    0.0000 </r>
       <r>   -3.5167    0.0000 </r>
       <r>   -2.7385    0.0000 </r>
       <r>   -1.7927    0.0000 </r>
       <r>    1.8539    0.0000 </r>
       <r>    2.1173    0.0000 </r>
       <r>    2.5756    0.0000 </r>
       <r>    3.1797    0.0000 </r>
       <r>    3.8718    0.0000 </r>
       <r>    4.2713    0.0000 </r>
       <r>    4.5876    0.0000 </r>
       <r>    5.0846    0.0000 </r>
      </set>
      <set comment="kpoint 31">
       <r>  -41.0498    1.0000 </r>
       <r>  -40.8807    1.0000 </r>
       <r>  -40.8570    1.0000 </r>
       <r>  -18.4166    1.0000 </r>
       <r>  -17.8494    1.0000 </r>
       <r>  -11.1162    1.0000 </r>
       <r>  -10.1984    1.0000 </r>
       <r>   -9.6886    1.0000 </r>
       <r>   -8.9265    1.0000 </r>
       <r>   -7.5587    1.0000 </r>
       <r>   -7.3674    1.0000 </r>
       <r>   -6.6000    1.0000 </r>
       <r>   -3.7819    0.0000 </r>
       <r>   -3.4642    0.0000 </r>
       <r>   -2.5026    0.0000 </r>
       <r>   -1.7413    0.0000 </r>
       <r>    1.3631    0.0000 </r>
       <r>    2.2413    0.0000 </r>
       <r>    2.5763    0.0000 </r>
       <r>    3.2776    0.0000 </r>
       <r>    4.1986    0.0000 </r>
       <r>    4.5090    0.0000 </r>
       <r>    4.9726    0.0000 </r>
       <r>    5.2799    0.0000 </r>
      </set>
      <set comment="kpoint 32">
       <r>  -41.0725    1.0000 </r>
       <r>  -40.8759    1.0000 </r>
       <r>  -40.8637    1.0000 </r>
       <r>  -18.2709    1.0000 </r>
       <r>  -17.7716    1.0000 </r>
       <r>  -11.2666    1.0000 </r>
       <r>  -10.3898    1.0000 </r>
       <r>   -9.7423    1.0000 </r>
       <r>   -8.9649    1.0000 </r>
       <r>   -7.5942    1.0000 </r>
       <r>   -7.3769    1.0000 </r>
       <r>   -6.4790    1.0000 </r>
       <r>   -3.7593    0.0000 </r>
       <r>   -3.3740    0.0000 </r>
       <r>   -2.2906    0.0000 </r>
       <r>   -1.7484    0.0000 </r>
       <r>    0.8662    0.0000 </r>
       <r>    2.3657    0.0000 </r>
       <r>    2.6397    0.0000 </r>
       <r>    3.3904    0.0000 </r>
       <r>    4.2963    0.0000 </r>
       <r>    4.7411    0.0000 </r>
       <r>    5.0775    0.0000 </r>
       <r>    5.4148    0.0000 </r>
      </set>
      <set comment="kpoint 33">
       <r>  -41.0867    1.0000 </r>
       <r>  -40.8729    1.0000 </r>
       <r>  -40.8679    1.0000 </r>
       <r>  -18.1784    1.0000 </r>
       <r>  -17.7181    1.0000 </r>
       <r>  -11.3668    1.0000 </r>
       <r>  -10.5109    1.0000 </r>
       <r>   -9.7925    1.0000 </r>
       <r>   -8.9850    1.0000 </r>
       <r>   -7.6473    1.0000 </r>
       <r>   -7.3448    1.0000 </r>
       <r>   -6.3705    1.0000 </r>
       <r>   -3.7644    0.0000 </r>
       <r>   -3.2782    0.0000 </r>
       <r>   -2.1150    0.0000 </r>
       <r>   -1.8047    0.0000 </r>
       <r>    0.5156    0.0000 </r>
       <r>    2.4488    0.0000 </r>
       <r>    2.7409    0.0000 </r>
       <r>    3.4184    0.0000 </r>
       <r>    4.2588    0.0000 </r>
       <r>    4.7637    0.0000 </r>
       <r>    5.2124    0.0000 </r>
       <r>    5.8123    0.0000 </r>
      </set>
      <set comment="kpoint 34">
       <r>  -41.0916    1.0000 </r>
       <r>  -40.8718    1.0000 </r>
       <r>  -40.8693    1.0000 </r>
       <r>  -18.1468    1.0000 </r>
       <r>  -17.6988    1.0000 </r>
       <r>  -11.4019    1.0000 </r>
       <r>  -10.5523    1.0000 </r>
       <r>   -9.8125    1.0000 </r>
       <r>   -8.9912    1.0000 </r>
       <r>   -7.6682    1.0000 </r>
       <r>   -7.3302    1.0000 </r>
       <r>   -6.3265    1.0000 </r>
       <r>   -3.7709    0.0000 </r>
       <r>   -3.2365    0.0000 </r>
       <r>   -2.0208    0.0000 </r>
       <r>   -1.8602    0.0000 </r>
       <r>    0.3880    0.0000 </r>
       <r>    2.4847    0.0000 </r>
       <r>    2.7897    0.0000 </r>
       <r>    3.4080    0.0000 </r>
       <r>    4.2154    0.0000 </r>
       <r>    4.7713    0.0000 </r>
       <r>    5.3100    0.0000 </r>
       <r>    5.9493    0.0000 </r>
      </set>
      <set comment="kpoint 35">
       <r>  -40.9107    1.0000 </r>
       <r>  -40.9045    1.0000 </r>
       <r>  -40.8168    1.0000 </r>
       <r>  -19.2446    1.0000 </r>
       <r>  -18.2351    1.0000 </r>
       <r>  -10.7593    1.0000 </r>
       <r>   -9.5056    1.0000 </r>
       <r>   -8.8991    1.0000 </r>
       <r>   -8.5109    1.0000 </r>
       <r>   -7.9250    1.0000 </r>
       <r>   -6.8026    1.0000 </r>
       <r>   -6.3052    1.0000 </r>
       <r>   -3.7953    0.0000 </r>
       <r>   -3.4726    0.0000 </r>
       <r>   -3.4317    0.0000 </r>
       <r>   -2.2493    0.0000 </r>
       <r>    1.1447    0.0000 </r>
       <r>    2.2223    0.0000 </r>
       <r>    2.6054    0.0000 </r>
       <r>    2.9264    0.0000 </r>
       <r>    3.2775    0.0000 </r>
       <r>    3.7238    0.0000 </r>
       <r>    3.8454    0.0000 </r>
       <r>    4.2929    0.0000 </r>
      </set>
      <set comment="kpoint 36">
       <r>  -40.9379    1.0000 </r>
       <r>  -40.9034    1.0000 </r>
       <r>  -40.8290    1.0000 </r>
       <r>  -19.0564    1.0000 </r>
       <r>  -18.1509    1.0000 </r>
       <r>  -10.6834    1.0000 </r>
       <r>   -9.6482    1.0000 </r>
       <r>   -9.1529    1.0000 </r>
       <r>   -8.7542    1.0000 </r>
       <r>   -7.8333    1.0000 </r>
       <r>   -6.8594    1.0000 </r>
       <r>   -6.4811    1.0000 </r>
       <r>   -3.8850    0.0000 </r>
       <r>   -3.5001    0.0000 </r>
       <r>   -3.3469    0.0000 </r>
       <r>   -2.0341    0.0000 </r>
       <r>    1.4247    0.0000 </r>
       <r>    2.4933    0.0000 </r>
       <r>    2.8960    0.0000 </r>
       <r>    3.1123    0.0000 </r>
       <r>    3.5578    0.0000 </r>
       <r>    3.7029    0.0000 </r>
       <r>    4.0646    0.0000 </r>
       <r>    4.2069    0.0000 </r>
      </set>
      <set comment="kpoint 37">
       <r>  -40.9720    1.0000 </r>
       <r>  -40.8959    1.0000 </r>
       <r>  -40.8418    1.0000 </r>
       <r>  -18.8533    1.0000 </r>
       <r>  -18.0581    1.0000 </r>
       <r>  -10.7095    1.0000 </r>
       <r>   -9.7054    1.0000 </r>
       <r>   -9.4634    1.0000 </r>
       <r>   -8.8912    1.0000 </r>
       <r>   -7.7928    1.0000 </r>
       <r>   -6.9670    1.0000 </r>
       <r>   -6.6156    1.0000 </r>
       <r>   -3.9163    0.0000 </r>
       <r>   -3.5037    0.0000 </r>
       <r>   -3.1831    0.0000 </r>
       <r>   -1.8576    0.0000 </r>
       <r>    1.7243    0.0000 </r>
       <r>    2.6646    0.0000 </r>
       <r>    2.8273    0.0000 </r>
       <r>    3.2288    0.0000 </r>
       <r>    3.6633    0.0000 </r>
       <r>    4.0161    0.0000 </r>
       <r>    4.1161    0.0000 </r>
       <r>    4.5497    0.0000 </r>
      </set>
      <set comment="kpoint 38">
       <r>  -41.0046    1.0000 </r>
       <r>  -40.8886    1.0000 </r>
       <r>  -40.8543    1.0000 </r>
       <r>  -18.6486    1.0000 </r>
       <r>  -17.9614    1.0000 </r>
       <r>  -10.8269    1.0000 </r>
       <r>   -9.8575    1.0000 </r>
       <r>   -9.6218    1.0000 </r>
       <r>   -8.9600    1.0000 </r>
       <r>   -7.8070    1.0000 </r>
       <r>   -7.1111    1.0000 </r>
       <r>   -6.6551    1.0000 </r>
       <r>   -3.8756    0.0000 </r>
       <r>   -3.4972    0.0000 </r>
       <r>   -2.9724    0.0000 </r>
       <r>   -1.7336    0.0000 </r>
       <r>    1.9925    0.0000 </r>
       <r>    2.3820    0.0000 </r>
       <r>    2.7615    0.0000 </r>
       <r>    3.3933    0.0000 </r>
       <r>    3.8062    0.0000 </r>
       <r>    4.2685    0.0000 </r>
       <r>    4.4630    0.0000 </r>
       <r>    4.9595    0.0000 </r>
      </set>
      <set comment="kpoint 39">
       <r>  -41.0337    1.0000 </r>
       <r>  -40.8820    1.0000 </r>
       <r>  -40.8655    1.0000 </r>
       <r>  -18.4578    1.0000 </r>
       <r>  -17.8668    1.0000 </r>
       <r>  -10.9778    1.0000 </r>
       <r>  -10.1378    1.0000 </r>
       <r>   -9.6325    1.0000 </r>
       <r>   -8.9871    1.0000 </r>
       <r>   -7.8300    1.0000 </r>
       <r>   -7.2727    1.0000 </r>
       <r>   -6.5983    1.0000 </r>
       <r>   -3.7875    0.0000 </r>
       <r>   -3.4793    0.0000 </r>
       <r>   -2.7463    0.0000 </r>
       <r>   -1.6690    0.0000 </r>
       <r>    1.7362    0.0000 </r>
       <r>    2.3714    0.0000 </r>
       <r>    2.8085    0.0000 </r>
       <r>    3.4302    0.0000 </r>
       <r>    4.1730    0.0000 </r>
       <r>    4.4236    0.0000 </r>
       <r>    4.8305    0.0000 </r>
       <r>    5.1085    0.0000 </r>
      </set>
      <set comment="kpoint 40">
       <r>  -41.0572    1.0000 </r>
       <r>  -40.8767    1.0000 </r>
       <r>  -40.8747    1.0000 </r>
       <r>  -18.2975    1.0000 </r>
       <r>  -17.7818    1.0000 </r>
       <r>  -11.1187    1.0000 </r>
       <r>  -10.3740    1.0000 </r>
       <r>   -9.6767    1.0000 </r>
       <r>   -8.9876    1.0000 </r>
       <r>   -7.8299    1.0000 </r>
       <r>   -7.4196    1.0000 </r>
       <r>   -6.4846    1.0000 </r>
       <r>   -3.7360    0.0000 </r>
       <r>   -3.4017    0.0000 </r>
       <r>   -2.5301    0.0000 </r>
       <r>   -1.6631    0.0000 </r>
       <r>    1.2214    0.0000 </r>
       <r>    2.5920    0.0000 </r>
       <r>    2.8752    0.0000 </r>
       <r>    3.5130    0.0000 </r>
       <r>    4.2851    0.0000 </r>
       <r>    4.5956    0.0000 </r>
       <r>    4.9429    0.0000 </r>
       <r>    5.3518    0.0000 </r>
      </set>
      <set comment="kpoint 41">
       <r>  -41.0738    1.0000 </r>
       <r>  -40.8812    1.0000 </r>
       <r>  -40.8729    1.0000 </r>
       <r>  -18.1825    1.0000 </r>
       <r>  -17.7156    1.0000 </r>
       <r>  -11.2252    1.0000 </r>
       <r>  -10.5399    1.0000 </r>
       <r>   -9.7402    1.0000 </r>
       <r>   -8.9757    1.0000 </r>
       <r>   -7.8209    1.0000 </r>
       <r>   -7.5238    1.0000 </r>
       <r>   -6.3583    1.0000 </r>
       <r>   -3.7610    0.0000 </r>
       <r>   -3.2618    0.0000 </r>
       <r>   -2.3455    0.0000 </r>
       <r>   -1.7035    0.0000 </r>
       <r>    0.7967    0.0000 </r>
       <r>    2.7779    0.0000 </r>
       <r>    2.9995    0.0000 </r>
       <r>    3.5496    0.0000 </r>
       <r>    4.1263    0.0000 </r>
       <r>    4.6703    0.0000 </r>
       <r>    5.1922    0.0000 </r>
       <r>    5.7105    0.0000 </r>
      </set>
      <set comment="kpoint 42">
       <r>  -41.0824    1.0000 </r>
       <r>  -40.8846    1.0000 </r>
       <r>  -40.8709    1.0000 </r>
       <r>  -18.1228    1.0000 </r>
       <r>  -17.6787    1.0000 </r>
       <r>  -11.2823    1.0000 </r>
       <r>  -10.6251    1.0000 </r>
       <r>   -9.7840    1.0000 </r>
       <r>   -8.9650    1.0000 </r>
       <r>   -7.8205    1.0000 </r>
       <r>   -7.5720    1.0000 </r>
       <r>   -6.2728    1.0000 </r>
       <r>   -3.7981    0.0000 </r>
       <r>   -3.1567    0.0000 </r>
       <r>   -2.2250    0.0000 </r>
       <r>   -1.7546    0.0000 </r>
       <r>    0.5542    0.0000 </r>
       <r>    2.9086    0.0000 </r>
       <r>    3.1261    0.0000 </r>
       <r>    3.5060    0.0000 </r>
       <r>    3.9749    0.0000 </r>
       <r>    4.7116    0.0000 </r>
       <r>    5.3657    0.0000 </r>
       <r>    6.0034    0.0000 </r>
      </set>
      <set comment="kpoint 43">
       <r>  -40.9670    1.0000 </r>
       <r>  -40.8964    1.0000 </r>
       <r>  -40.8436    1.0000 </r>
       <r>  -18.8683    1.0000 </r>
       <r>  -18.0644    1.0000 </r>
       <r>  -10.6829    1.0000 </r>
       <r>   -9.6851    1.0000 </r>
       <r>   -9.4100    1.0000 </r>
       <r>   -8.9585    1.0000 </r>
       <r>   -7.8469    1.0000 </r>
       <r>   -6.9047    1.0000 </r>
       <r>   -6.5988    1.0000 </r>
       <r>   -3.9392    0.0000 </r>
       <r>   -3.4917    0.0000 </r>
       <r>   -3.2618    0.0000 </r>
       <r>   -1.8400    0.0000 </r>
       <r>    1.7208    0.0000 </r>
       <r>    2.7270    0.0000 </r>
       <r>    2.9401    0.0000 </r>
       <r>    3.2249    0.0000 </r>
       <r>    3.7776    0.0000 </r>
       <r>    4.0091    0.0000 </r>
       <r>    4.1328    0.0000 </r>
       <r>    4.5037    0.0000 </r>
      </set>
      <set comment="kpoint 44">
       <r>  -40.9952    1.0000 </r>
       <r>  -40.8894    1.0000 </r>
       <r>  -40.8589    1.0000 </r>
       <r>  -18.6728    1.0000 </r>
       <r>  -17.9715    1.0000 </r>
       <r>  -10.7585    1.0000 </r>
       <r>   -9.7842    1.0000 </r>
       <r>   -9.6025    1.0000 </r>
       <r>   -9.0378    1.0000 </r>
       <r>   -7.9416    1.0000 </r>
       <r>   -7.0082    1.0000 </r>
       <r>   -6.6449    1.0000 </r>
       <r>   -3.9076    0.0000 </r>
       <r>   -3.4832    0.0000 </r>
       <r>   -3.1153    0.0000 </r>
       <r>   -1.6955    0.0000 </r>
       <r>    2.0216    0.0000 </r>
       <r>    2.6087    0.0000 </r>
       <r>    2.8777    0.0000 </r>
       <r>    3.5437    0.0000 </r>
       <r>    3.8612    0.0000 </r>
       <r>    4.2895    0.0000 </r>
       <r>    4.3870    0.0000 </r>
       <r>    4.8799    0.0000 </r>
      </set>
      <set comment="kpoint 45">
       <r>  -41.0208    1.0000 </r>
       <r>  -40.8828    1.0000 </r>
       <r>  -40.8737    1.0000 </r>
       <r>  -18.4838    1.0000 </r>
       <r>  -17.8773    1.0000 </r>
       <r>  -10.8698    1.0000 </r>
       <r>  -10.0912    1.0000 </r>
       <r>   -9.5737    1.0000 </r>
       <r>   -9.0513    1.0000 </r>
       <r>   -8.0666    1.0000 </r>
       <r>   -7.1636    1.0000 </r>
       <r>   -6.6051    1.0000 </r>
       <r>   -3.8023    0.0000 </r>
       <r>   -3.4800    0.0000 </r>
       <r>   -2.9331    0.0000 </r>
       <r>   -1.6066    0.0000 </r>
       <r>    2.0440    0.0000 </r>
       <r>    2.4487    0.0000 </r>
       <r>    2.9644    0.0000 </r>
       <r>    3.6586    0.0000 </r>
       <r>    4.1434    0.0000 </r>
       <r>    4.3277    0.0000 </r>
       <r>    4.7615    0.0000 </r>
       <r>    5.1135    0.0000 </r>
      </set>
      <set comment="kpoint 46">
       <r>  -41.0424    1.0000 </r>
       <r>  -40.8866    1.0000 </r>
       <r>  -40.8772    1.0000 </r>
       <r>  -18.3168    1.0000 </r>
       <r>  -17.7883    1.0000 </r>
       <r>  -10.9798    1.0000 </r>
       <r>  -10.3628    1.0000 </r>
       <r>   -9.5877    1.0000 </r>
       <r>   -9.0253    1.0000 </r>
       <r>   -8.1580    1.0000 </r>
       <r>   -7.3376    1.0000 </r>
       <r>   -6.5028    1.0000 </r>
       <r>   -3.7256    0.0000 </r>
       <r>   -3.4173    0.0000 </r>
       <r>   -2.7454    0.0000 </r>
       <r>   -1.5704    0.0000 </r>
       <r>    1.5862    0.0000 </r>
       <r>    2.6999    0.0000 </r>
       <r>    3.0360    0.0000 </r>
       <r>    3.7081    0.0000 </r>
       <r>    4.1728    0.0000 </r>
       <r>    4.5849    0.0000 </r>
       <r>    5.0063    0.0000 </r>
       <r>    5.3275    0.0000 </r>
      </set>
      <set comment="kpoint 47">
       <r>  -41.0588    1.0000 </r>
       <r>  -40.8967    1.0000 </r>
       <r>  -40.8729    1.0000 </r>
       <r>  -18.1866    1.0000 </r>
       <r>  -17.7130    1.0000 </r>
       <r>  -11.0689    1.0000 </r>
       <r>  -10.5660    1.0000 </r>
       <r>   -9.6555    1.0000 </r>
       <r>   -8.9784    1.0000 </r>
       <r>   -8.1988    1.0000 </r>
       <r>   -7.4958    1.0000 </r>
       <r>   -6.3679    1.0000 </r>
       <r>   -3.7736    0.0000 </r>
       <r>   -3.2388    0.0000 </r>
       <r>   -2.5797    0.0000 </r>
       <r>   -1.5753    0.0000 </r>
       <r>    1.1321    0.0000 </r>
       <r>    2.9473    0.0000 </r>
       <r>    3.1383    0.0000 </r>
       <r>    3.7651    0.0000 </r>
       <r>    4.0166    0.0000 </r>
       <r>    4.8506    0.0000 </r>
       <r>    5.2156    0.0000 </r>
       <r>    5.6721    0.0000 </r>
      </set>
      <set comment="kpoint 48">
       <r>  -41.0690    1.0000 </r>
       <r>  -40.9031    1.0000 </r>
       <r>  -40.8702    1.0000 </r>
       <r>  -18.1044    1.0000 </r>
       <r>  -17.6614    1.0000 </r>
       <r>  -11.1271    1.0000 </r>
       <r>  -10.6893    1.0000 </r>
       <r>   -9.7282    1.0000 </r>
       <r>   -8.9334    1.0000 </r>
       <r>   -8.2112    1.0000 </r>
       <r>   -7.6076    1.0000 </r>
       <r>   -6.2463    1.0000 </r>
       <r>   -3.8563    0.0000 </r>
       <r>   -3.0651    0.0000 </r>
       <r>   -2.4622    0.0000 </r>
       <r>   -1.5989    0.0000 </r>
       <r>    0.8026    0.0000 </r>
       <r>    3.1389    0.0000 </r>
       <r>    3.2879    0.0000 </r>
       <r>    3.7568    0.0000 </r>
       <r>    3.8697    0.0000 </r>
       <r>    4.9287    0.0000 </r>
       <r>    5.4271    0.0000 </r>
       <r>    6.0225    0.0000 </r>
      </set>
      <set comment="kpoint 49">
       <r>  -41.0725    1.0000 </r>
       <r>  -40.9052    1.0000 </r>
       <r>  -40.8692    1.0000 </r>
       <r>  -18.0764    1.0000 </r>
       <r>  -17.6429    1.0000 </r>
       <r>  -11.1475    1.0000 </r>
       <r>  -10.7302    1.0000 </r>
       <r>   -9.7584    1.0000 </r>
       <r>   -8.9144    1.0000 </r>
       <r>   -8.2139    1.0000 </r>
       <r>   -7.6483    1.0000 </r>
       <r>   -6.1958    1.0000 </r>
       <r>   -3.8944    0.0000 </r>
       <r>   -2.9943    0.0000 </r>
       <r>   -2.4187    0.0000 </r>
       <r>   -1.6119    0.0000 </r>
       <r>    0.6806    0.0000 </r>
       <r>    3.2157    0.0000 </r>
       <r>    3.3996    0.0000 </r>
       <r>    3.7038    0.0000 </r>
       <r>    3.7988    0.0000 </r>
       <r>    4.9484    0.0000 </r>
       <r>    5.5117    0.0000 </r>
       <r>    6.0877    0.0000 </r>
      </set>
      <set comment="kpoint 50">
       <r>  -41.0157    1.0000 </r>
       <r>  -40.8831    1.0000 </r>
       <r>  -40.8772    1.0000 </r>
       <r>  -18.4928    1.0000 </r>
       <r>  -17.8807    1.0000 </r>
       <r>  -10.8285    1.0000 </r>
       <r>  -10.0734    1.0000 </r>
       <r>   -9.5448    1.0000 </r>
       <r>   -9.0800    1.0000 </r>
       <r>   -8.1593    1.0000 </r>
       <r>   -7.1199    1.0000 </r>
       <r>   -6.6089    1.0000 </r>
       <r>   -3.8095    0.0000 </r>
       <r>   -3.4787    0.0000 </r>
       <r>   -3.0027    0.0000 </r>
       <r>   -1.5827    0.0000 </r>
       <r>    2.1696    0.0000 </r>
       <r>    2.4770    0.0000 </r>
       <r>    3.0047    0.0000 </r>
       <r>    3.7638    0.0000 </r>
       <r>    4.1417    0.0000 </r>
       <r>    4.2909    0.0000 </r>
       <r>    4.7513    0.0000 </r>
       <r>    5.2057    0.0000 </r>
      </set>
      <set comment="kpoint 51">
       <r>  -41.0328    1.0000 </r>
       <r>  -40.8948    1.0000 </r>
       <r>  -40.8775    1.0000 </r>
       <r>  -18.3271    1.0000 </r>
       <r>  -17.7914    1.0000 </r>
       <r>  -10.8939    1.0000 </r>
       <r>  -10.3572    1.0000 </r>
       <r>   -9.5036    1.0000 </r>
       <r>   -9.0602    1.0000 </r>
       <r>   -8.3744    1.0000 </r>
       <r>   -7.2804    1.0000 </r>
       <r>   -6.5170    1.0000 </r>
       <r>   -3.7240    0.0000 </r>
       <r>   -3.4230    0.0000 </r>
       <r>   -2.8696    0.0000 </r>
       <r>   -1.5136    0.0000 </r>
       <r>    1.8674    0.0000 </r>
       <r>    2.6737    0.0000 </r>
       <r>    3.0659    0.0000 </r>
       <r>    3.8050    0.0000 </r>
       <r>    4.2351    0.0000 </r>
       <r>    4.5802    0.0000 </r>
       <r>    5.1575    0.0000 </r>
       <r>    5.3577    0.0000 </r>
      </set>
      <set comment="kpoint 52">
       <r>  -41.0457    1.0000 </r>
       <r>  -40.9101    1.0000 </r>
       <r>  -40.8729    1.0000 </r>
       <r>  -18.1896    1.0000 </r>
       <r>  -17.7110    1.0000 </r>
       <r>  -10.9449    1.0000 </r>
       <r>  -10.5811    1.0000 </r>
       <r>   -9.5398    1.0000 </r>
       <r>   -9.0005    1.0000 </r>
       <r>   -8.5243    1.0000 </r>
       <r>   -7.4557    1.0000 </r>
       <r>   -6.3821    1.0000 </r>
       <r>   -3.7895    0.0000 </r>
       <r>   -3.2206    0.0000 </r>
       <r>   -2.7439    0.0000 </r>
       <r>   -1.4776    0.0000 </r>
       <r>    1.4653    0.0000 </r>
       <r>    2.7727    0.0000 </r>
       <r>    3.1985    0.0000 </r>
       <r>    3.8714    0.0000 </r>
       <r>    4.2847    0.0000 </r>
       <r>    5.0235    0.0000 </r>
       <r>    5.3499    0.0000 </r>
       <r>    5.6970    0.0000 </r>
      </set>
      <set comment="kpoint 53">
       <r>  -41.0543    1.0000 </r>
       <r>  -40.9215    1.0000 </r>
       <r>  -40.8696    1.0000 </r>
       <r>  -18.0920    1.0000 </r>
       <r>  -17.6487    1.0000 </r>
       <r>  -10.9887    1.0000 </r>
       <r>  -10.7168    1.0000 </r>
       <r>   -9.6349    1.0000 </r>
       <r>   -8.9232    1.0000 </r>
       <r>   -8.5988    1.0000 </r>
       <r>   -7.6099    1.0000 </r>
       <r>   -6.2347    1.0000 </r>
       <r>   -3.9164    0.0000 </r>
       <r>   -2.9923    0.0000 </r>
       <r>   -2.6486    0.0000 </r>
       <r>   -1.4630    0.0000 </r>
       <r>    1.1021    0.0000 </r>
       <r>    2.7769    0.0000 </r>
       <r>    3.4111    0.0000 </r>
       <r>    3.9843    0.0000 </r>
       <r>    4.3204    0.0000 </r>
       <r>    5.2675    0.0000 </r>
       <r>    5.5238    0.0000 </r>
       <r>    6.0319    0.0000 </r>
      </set>
      <set comment="kpoint 54">
       <r>  -41.0586    1.0000 </r>
       <r>  -40.9275    1.0000 </r>
       <r>  -40.8680    1.0000 </r>
       <r>  -18.0415    1.0000 </r>
       <r>  -17.6144    1.0000 </r>
       <r>  -11.0229    1.0000 </r>
       <r>  -10.7672    1.0000 </r>
       <r>   -9.7120    1.0000 </r>
       <r>   -8.8645    1.0000 </r>
       <r>   -8.6286    1.0000 </r>
       <r>   -7.7034    1.0000 </r>
       <r>   -6.1325    1.0000 </r>
       <r>   -4.0122    0.0000 </r>
       <r>   -2.8445    0.0000 </r>
       <r>   -2.5982    0.0000 </r>
       <r>   -1.4590    0.0000 </r>
       <r>    0.8841    0.0000 </r>
       <r>    2.7754    0.0000 </r>
       <r>    3.5853    0.0000 </r>
       <r>    4.0507    0.0000 </r>
       <r>    4.3120    0.0000 </r>
       <r>    5.3230    0.0000 </r>
       <r>    5.6242    0.0000 </r>
       <r>    6.1520    0.0000 </r>
      </set>
      <set comment="kpoint 55">
       <r>  -41.0402    1.0000 </r>
       <r>  -40.9158    1.0000 </r>
       <r>  -40.8729    1.0000 </r>
       <r>  -18.1907    1.0000 </r>
       <r>  -17.7102    1.0000 </r>
       <r>  -10.8981    1.0000 </r>
       <r>  -10.5848    1.0000 </r>
       <r>   -9.4640    1.0000 </r>
       <r>   -9.0296    1.0000 </r>
       <r>   -8.6581    1.0000 </r>
       <r>   -7.4390    1.0000 </r>
       <r>   -6.3883    1.0000 </r>
       <r>   -3.7963    0.0000 </r>
       <r>   -3.2141    0.0000 </r>
       <r>   -2.8023    0.0000 </r>
       <r>   -1.4415    0.0000 </r>
       <r>    1.6396    0.0000 </r>
       <r>    2.6140    0.0000 </r>
       <r>    3.2182    0.0000 </r>
       <r>    3.9205    0.0000 </r>
       <r>    4.4378    0.0000 </r>
       <r>    5.0609    0.0000 </r>
       <r>    5.5007    0.0000 </r>
       <r>    5.7108    0.0000 </r>
      </set>
      <set comment="kpoint 56">
       <r>  -41.0436    1.0000 </r>
       <r>  -40.9342    1.0000 </r>
       <r>  -40.8694    1.0000 </r>
       <r>  -18.0858    1.0000 </r>
       <r>  -17.6420    1.0000 </r>
       <r>  -10.9296    1.0000 </r>
       <r>  -10.6953    1.0000 </r>
       <r>   -9.5099    1.0000 </r>
       <r>   -9.0262    1.0000 </r>
       <r>   -8.7933    1.0000 </r>
       <r>   -7.6078    1.0000 </r>
       <r>   -6.2306    1.0000 </r>
       <r>   -3.9532    0.0000 </r>
       <r>   -2.9562    0.0000 </r>
       <r>   -2.7471    0.0000 </r>
       <r>   -1.3845    0.0000 </r>
       <r>    1.3703    0.0000 </r>
       <r>    2.4311    0.0000 </r>
       <r>    3.4589    0.0000 </r>
       <r>    4.1408    0.0000 </r>
       <r>    4.6690    0.0000 </r>
       <r>    5.5084    0.0000 </r>
       <r>    5.6813    0.0000 </r>
       <r>    6.0947    0.0000 </r>
      </set>
      <set comment="kpoint 57">
       <r>  -41.0442    1.0000 </r>
       <r>  -40.9473    1.0000 </r>
       <r>  -40.8671    1.0000 </r>
       <r>  -18.0200    1.0000 </r>
       <r>  -17.5959    1.0000 </r>
       <r>  -11.0060    1.0000 </r>
       <r>  -10.6734    1.0000 </r>
       <r>   -9.6321    1.0000 </r>
       <r>   -9.0553    1.0000 </r>
       <r>   -8.7676    1.0000 </r>
       <r>   -7.7456    1.0000 </r>
       <r>   -6.0868    1.0000 </r>
       <r>   -4.1065    0.0000 </r>
       <r>   -2.7672    0.0000 </r>
       <r>   -2.6956    0.0000 </r>
       <r>   -1.3459    0.0000 </r>
       <r>    1.1326    0.0000 </r>
       <r>    2.3316    0.0000 </r>
       <r>    3.6663    0.0000 </r>
       <r>    4.3431    0.0000 </r>
       <r>    4.8339    0.0000 </r>
       <r>    5.7071    0.0000 </r>
       <r>    5.7717    0.0000 </r>
       <r>    6.2149    0.0000 </r>
      </set>
      <set comment="kpoint 58">
       <r>  -41.0440    1.0000 </r>
       <r>  -40.9521    1.0000 </r>
       <r>  -40.8664    1.0000 </r>
       <r>  -17.9976    1.0000 </r>
       <r>  -17.5796    1.0000 </r>
       <r>  -11.0400    1.0000 </r>
       <r>  -10.6462    1.0000 </r>
       <r>   -9.6988    1.0000 </r>
       <r>   -9.0633    1.0000 </r>
       <r>   -8.7405    1.0000 </r>
       <r>   -7.8013    1.0000 </r>
       <r>   -6.0256    1.0000 </r>
       <r>   -4.1724    0.0000 </r>
       <r>   -2.7288    0.0000 </r>
       <r>   -2.6428    0.0000 </r>
       <r>   -1.3320    0.0000 </r>
       <r>    1.0368    0.0000 </r>
       <r>    2.3041    0.0000 </r>
       <r>    3.7557    0.0000 </r>
       <r>    4.4224    0.0000 </r>
       <r>    4.8906    0.0000 </r>
       <r>    5.7191    0.0000 </r>
       <r>    5.7832    0.0000 </r>
       <r>    6.1951    0.0000 </r>
      </set>
      <set comment="kpoint 59">
       <r>  -41.0371    1.0000 </r>
       <r>  -40.9561    1.0000 </r>
       <r>  -40.8669    1.0000 </r>
       <r>  -18.0127    1.0000 </r>
       <r>  -17.5896    1.0000 </r>
       <r>  -11.0161    1.0000 </r>
       <r>  -10.6083    1.0000 </r>
       <r>   -9.5493    1.0000 </r>
       <r>   -9.2522    1.0000 </r>
       <r>   -8.7540    1.0000 </r>
       <r>   -7.7619    1.0000 </r>
       <r>   -6.0696    1.0000 </r>
       <r>   -4.1426    0.0000 </r>
       <r>   -2.7864    0.0000 </r>
       <r>   -2.6836    0.0000 </r>
       <r>   -1.3044    0.0000 </r>
       <r>    1.2842    0.0000 </r>
       <r>    2.1117    0.0000 </r>
       <r>    3.6954    0.0000 </r>
       <r>    4.4473    0.0000 </r>
       <r>    5.0612    0.0000 </r>
       <r>    5.8022    0.0000 </r>
       <r>    5.9663    0.0000 </r>
       <r>    6.2606    0.0000 </r>
      </set>
      <set comment="kpoint 60">
       <r>  -41.0302    1.0000 </r>
       <r>  -40.9711    1.0000 </r>
       <r>  -40.8656    1.0000 </r>
       <r>  -17.9750    1.0000 </r>
       <r>  -17.5611    1.0000 </r>
       <r>  -11.0825    1.0000 </r>
       <r>  -10.4787    1.0000 </r>
       <r>   -9.6953    1.0000 </r>
       <r>   -9.3356    1.0000 </r>
       <r>   -8.6823    1.0000 </r>
       <r>   -7.8686    1.0000 </r>
       <r>   -5.9556    1.0000 </r>
[...]
       <r>     4.6242     1.4028    22.2685 </r>
       <r>     4.6347     1.3694    22.2828 </r>
       <r>     4.6451     1.3439    22.2968 </r>
       <r>     4.6555     1.3208    22.3106 </r>
       <r>     4.6659     1.2916    22.3240 </r>
       <r>     4.6764     1.2529    22.3371 </r>
       <r>     4.6868     1.2122    22.3498 </r>
       <r>     4.6972     1.1861    22.3621 </r>
       <r>     4.7077     1.1922    22.3746 </r>
       <r>     4.7181     1.2393    22.3875 </r>
       <r>     4.7285     1.3204    22.4013 </r>
       <r>     4.7390     1.4134    22.4160 </r>
       <r>     4.7494     1.4891    22.4315 </r>
       <r>     4.7598     1.5232    22.4474 </r>
       <r>     4.7702     1.5066    22.4631 </r>
       <r>     4.7807     1.4491    22.4782 </r>
       <r>     4.7911     1.3743    22.4926 </r>
       <r>     4.8015     1.3081    22.5062 </r>
       <r>     4.8120     1.2676    22.5194 </r>
       <r>     4.8224     1.2557    22.5325 </r>
       <r>     4.8328     1.2626    22.5457 </r>
       <r>     4.8433     1.2737    22.5590 </r>
       <r>     4.8537     1.2765    22.5723 </r>
       <r>     4.8641     1.2658    22.5855 </r>
       <r>     4.8745     1.2442    22.5985 </r>
       <r>     4.8850     1.2196    22.6112 </r>
       <r>     4.8954     1.2020    22.6237 </r>
       <r>     4.9058     1.2000    22.6363 </r>
       <r>     4.9163     1.2168    22.6490 </r>
       <r>     4.9267     1.2489    22.6620 </r>
       <r>     4.9371     1.2872    22.6754 </r>
       <r>     4.9476     1.3207    22.6892 </r>
       <r>     4.9580     1.3413    22.7032 </r>
       <r>     4.9684     1.3473    22.7172 </r>
       <r>     4.9788     1.3427    22.7312 </r>
       <r>     4.9893     1.3344    22.7451 </r>
       <r>     4.9997     1.3278    22.7590 </r>
       <r>     5.0101     1.3254    22.7728 </r>
       <r>     5.0206     1.3271    22.7867 </r>
       <r>     5.0310     1.3327    22.8006 </r>
       <r>     5.0414     1.3436    22.8146 </r>
       <r>     5.0519     1.3618    22.8288 </r>
       <r>     5.0623     1.3871    22.8432 </r>
       <r>     5.0727     1.4149    22.8580 </r>
       <r>     5.0831     1.4350    22.8730 </r>
       <r>     5.0936     1.4347    22.8879 </r>
       <r>     5.1040     1.4036    22.9026 </r>
       <r>     5.1144     1.3390    22.9165 </r>
       <r>     5.1249     1.2487    22.9296 </r>
       <r>     5.1353     1.1496    22.9415 </r>
       <r>     5.1457     1.0633    22.9526 </r>
       <r>     5.1562     1.0094    22.9632 </r>
       <r>     5.1666     0.9989    22.9736 </r>
       <r>     5.1770     1.0314    22.9843 </r>
       <r>     5.1874     1.0946    22.9958 </r>
       <r>     5.1979     1.1688    23.0080 </r>
       <r>     5.2083     1.2342    23.0208 </r>
       <r>     5.2187     1.2779    23.0342 </r>
       <r>     5.2292     1.2983    23.0477 </r>
       <r>     5.2396     1.3046    23.0613 </r>
       <r>     5.2500     1.3116    23.0750 </r>
       <r>     5.2605     1.3331    23.0889 </r>
       <r>     5.2709     1.3779    23.1033 </r>
       <r>     5.2813     1.4505    23.1184 </r>
       <r>     5.2917     1.5517    23.1346 </r>
       <r>     5.3022     1.6794    23.1521 </r>
       <r>     5.3126     1.8249    23.1711 </r>
       <r>     5.3230     1.9696    23.1917 </r>
       <r>     5.3335     2.0855    23.2134 </r>
       <r>     5.3439     2.1420    23.2358 </r>
       <r>     5.3543     2.1168    23.2578 </r>
       <r>     5.3648     2.0065    23.2788 </r>
       <r>     5.3752     1.8285    23.2978 </r>
       <r>     5.3856     1.6141    23.3147 </r>
       <r>     5.3960     1.3966    23.3292 </r>
       <r>     5.4065     1.1993    23.3417 </r>
       <r>     5.4169     1.0315    23.3525 </r>
       <r>     5.4273     0.8922    23.3618 </r>
       <r>     5.4378     0.7785    23.3699 </r>
       <r>     5.4482     0.6929    23.3771 </r>
       <r>     5.4586     0.6445    23.3839 </r>
       <r>     5.4690     0.6442    23.3906 </r>
       <r>     5.4795     0.6968    23.3979 </r>
       <r>     5.4899     0.7942    23.4061 </r>
       <r>     5.5003     0.9142    23.4157 </r>
       <r>     5.5108     1.0255    23.4264 </r>
       <r>     5.5212     1.0967    23.4378 </r>
       <r>     5.5316     1.1063    23.4493 </r>
       <r>     5.5421     1.0490    23.4603 </r>
       <r>     5.5525     0.9374    23.4701 </r>
       <r>     5.5629     0.7966    23.4784 </r>
       <r>     5.5733     0.6567    23.4852 </r>
       <r>     5.5838     0.5439    23.4909 </r>
       <r>     5.5942     0.4751    23.4959 </r>
       <r>     5.6046     0.4566    23.5006 </r>
       <r>     5.6151     0.4864    23.5057 </r>
       <r>     5.6255     0.5581    23.5115 </r>
       <r>     5.6359     0.6649    23.5184 </r>
       <r>     5.6464     0.8002    23.5268 </r>
       <r>     5.6568     0.9566    23.5368 </r>
       <r>     5.6672     1.1229    23.5485 </r>
       <r>     5.6776     1.2826    23.5619 </r>
       <r>     5.6881     1.4157    23.5766 </r>
       <r>     5.6985     1.5032    23.5923 </r>
       <r>     5.7089     1.5337    23.6083 </r>
       <r>     5.7194     1.5085    23.6240 </r>
       <r>     5.7298     1.4412    23.6391 </r>
       <r>     5.7402     1.3525    23.6532 </r>
       <r>     5.7507     1.2621    23.6663 </r>
       <r>     5.7611     1.1809    23.6786 </r>
       <r>     5.7715     1.1090    23.6902 </r>
       <r>     5.7819     1.0385    23.7010 </r>
       <r>     5.7924     0.9593    23.7111 </r>
       <r>     5.8028     0.8658    23.7201 </r>
       <r>     5.8132     0.7594    23.7280 </r>
       <r>     5.8237     0.6489    23.7348 </r>
       <r>     5.8341     0.5469    23.7405 </r>
       <r>     5.8445     0.4650    23.7453 </r>
       <r>     5.8550     0.4097    23.7496 </r>
       <r>     5.8654     0.3801    23.7536 </r>
       <r>     5.8758     0.3689    23.7574 </r>
       <r>     5.8862     0.3658    23.7612 </r>
       <r>     5.8967     0.3625    23.7650 </r>
       <r>     5.9071     0.3559    23.7687 </r>
       <r>     5.9175     0.3486    23.7724 </r>
       <r>     5.9280     0.3466    23.7760 </r>
       <r>     5.9384     0.3564    23.7797 </r>
       <r>     5.9488     0.3820    23.7837 </r>
       <r>     5.9593     0.4248    23.7881 </r>
       <r>     5.9697     0.4833    23.7931 </r>
       <r>     5.9801     0.5532    23.7989 </r>
       <r>     5.9905     0.6279    23.8055 </r>
       <r>     6.0010     0.6981    23.8127 </r>
       <r>     6.0114     0.7537    23.8206 </r>
       <r>     6.0218     0.7876    23.8288 </r>
       <r>     6.0323     0.7985    23.8371 </r>
       <r>     6.0427     0.7925    23.8454 </r>
       <r>     6.0531     0.7801    23.8536 </r>
       <r>     6.0636     0.7703    23.8616 </r>
       <r>     6.0740     0.7662    23.8696 </r>
       <r>     6.0844     0.7630    23.8775 </r>
       <r>     6.0948     0.7521    23.8854 </r>
       <r>     6.1053     0.7267    23.8930 </r>
       <r>     6.1157     0.6864    23.9001 </r>
       <r>     6.1261     0.6373    23.9068 </r>
       <r>     6.1366     0.5887    23.9129 </r>
       <r>     6.1470     0.5490    23.9186 </r>
       <r>     6.1574     0.5222    23.9241 </r>
       <r>     6.1679     0.5088    23.9294 </r>
       <r>     6.1783     0.5069    23.9347 </r>
       <r>     6.1887     0.5133    23.9400 </r>
       <r>     6.1991     0.5248    23.9455 </r>
       <r>     6.2096     0.5384    23.9511 </r>
       <r>     6.2200     0.5507    23.9569 </r>
       <r>     6.2304     0.5583    23.9627 </r>
       <r>     6.2409     0.5573    23.9685 </r>
       <r>     6.2513     0.5435    23.9742 </r>
       <r>     6.2617     0.5135    23.9795 </r>
       <r>     6.2722     0.4661    23.9844 </r>
       <r>     6.2826     0.4031    23.9886 </r>
       <r>     6.2930     0.3304    23.9920 </r>
       <r>     6.3034     0.2556    23.9947 </r>
       <r>     6.3139     0.1863    23.9966 </r>
       <r>     6.3243     0.1280    23.9980 </r>
       <r>     6.3347     0.0829    23.9988 </r>
       <r>     6.3452     0.0507    23.9994 </r>
       <r>     6.3556     0.0293    23.9997 </r>
       <r>     6.3660     0.0160    23.9998 </r>
       <r>     6.3765     0.0083    23.9999 </r>
       <r>     6.3869     0.0040    24.0000 </r>
       <r>     6.3973     0.0018    24.0000 </r>
       <r>     6.4077     0.0008    24.0000 </r>
       <r>     6.4182     0.0003    24.0000 </r>
       <r>     6.4286     0.0001    24.0000 </r>
       <r>     6.4390     0.0000    24.0000 </r>
       <r>     6.4495     0.0000    24.0000 </r>
       <r>     6.4599     0.0000    24.0000 </r>
       <r>     6.4703     0.0000    24.0000 </r>
       <r>     6.4808     0.0000    24.0000 </r>
       <r>     6.4912     0.0000    24.0000 </r>
       <r>     6.5016     0.0000    24.0000 </r>
       <r>     6.5120     0.0000    24.0000 </r>
       <r>     6.5225     0.0000    24.0000 </r>
       <r>     6.5329     0.0000    24.0000 </r>
       <r>     6.5433     0.0000    24.0000 </r>
       <r>     6.5538     0.0000    24.0000 </r>
       <r>     6.5642     0.0000    24.0000 </r>
       <r>     6.5746     0.0000    24.0000 </r>
       <r>     6.5851     0.0000    24.0000 </r>
       <r>     6.5955     0.0000    24.0000 </r>
       <r>     6.6059     0.0000    24.0000 </r>
       <r>     6.6163     0.0000    24.0000 </r>
       <r>     6.6268     0.0000    24.0000 </r>
       <r>     6.6372     0.0000    24.0000 </r>
       <r>     6.6476     0.0000    24.0000 </r>
       <r>     6.6581     0.0000    24.0000 </r>
       <r>     6.6685     0.0000    24.0000 </r>
       <r>     6.6789     0.0000    24.0000 </r>
       <r>     6.6894     0.0000    24.0000 </r>
       <r>     6.6998     0.0000    24.0000 </r>
       <r>     6.7102     0.0000    24.0000 </r>
       <r>     6.7206     0.0000    24.0000 </r>
       <r>     6.7311     0.0000    24.0000 </r>
       <r>     6.7415     0.0000    24.0000 </r>
       <r>     6.7519     0.0000    24.0000 </r>
       <r>     6.7624     0.0000    24.0000 </r>
       <r>     6.7728     0.0000    24.0000 </r>
       <r>     6.7832     0.0000    24.0000 </r>
       <r>     6.7937     0.0000    24.0000 </r>
       <r>     6.8041     0.0000    24.0000 </r>
       <r>     6.8145     0.0000    24.0000 </r>
       <r>     6.8249     0.0000    24.0000 </r>
       <r>     6.8354     0.0000    24.0000 </r>
       <r>     6.8458     0.0000    24.0000 </r>
       <r>     6.8562     0.0000    24.0000 </r>
       <r>     6.8667     0.0000    24.0000 </r>
       <r>     6.8771     0.0000    24.0000 </r>
       <r>     6.8875     0.0000    24.0000 </r>
       <r>     6.8980     0.0000    24.0000 </r>
       <r>     6.9084     0.0000    24.0000 </r>
       <r>     6.9188     0.0000    24.0000 </r>
       <r>     6.9292     0.0000    24.0000 </r>
       <r>     6.9397     0.0000    24.0000 </r>
       <r>     6.9501     0.0000    24.0000 </r>
       <r>     6.9605     0.0000    24.0000 </r>
       <r>     6.9710     0.0000    24.0000 </r>
       <r>     6.9814     0.0000    24.0000 </r>
       <r>     6.9918     0.0000    24.0000 </r>
       <r>     7.0022     0.0000    24.0000 </r>
       <r>     7.0127     0.0000    24.0000 </r>
       <r>     7.0231     0.0000    24.0000 </r>
       <r>     7.0335     0.0000    24.0000 </r>
       <r>     7.0440     0.0000    24.0000 </r>
       <r>     7.0544     0.0000    24.0000 </r>
       <r>     7.0648     0.0000    24.0000 </r>
       <r>     7.0753     0.0000    24.0000 </r>
       <r>     7.0857     0.0000    24.0000 </r>
       <r>     7.0961     0.0000    24.0000 </r>
       <r>     7.1065     0.0000    24.0000 </r>
       <r>     7.1170     0.0000    24.0000 </r>
       <r>     7.1274     0.0000    24.0000 </r>
       <r>     7.1378     0.0000    24.0000 </r>
       <r>     7.1483     0.0000    24.0000 </r>
       <r>     7.1587     0.0000    24.0000 </r>
       <r>     7.1691     0.0000    24.0000 </r>
       <r>     7.1796     0.0000    24.0000 </r>
       <r>     7.1900     0.0000    24.0000 </r>
       <r>     7.2004     0.0000    24.0000 </r>
       <r>     7.2108     0.0000    24.0000 </r>
       <r>     7.2213     0.0000    24.0000 </r>
       <r>     7.2317     0.0000    24.0000 </r>
       <r>     7.2421     0.0000    24.0000 </r>
       <r>     7.2526     0.0000    24.0000 </r>
       <r>     7.2630     0.0000    24.0000 </r>
       <r>     7.2734     0.0000    24.0000 </r>
       <r>     7.2839     0.0000    24.0000 </r>
       <r>     7.2943     0.0000    24.0000 </r>
       <r>     7.3047     0.0000    24.0000 </r>
       <r>     7.3151     0.0000    24.0000 </r>
       <r>     7.3256     0.0000    24.0000 </r>
       <r>     7.3360     0.0000    24.0000 </r>
       <r>     7.3464     0.0000    24.0000 </r>
       <r>     7.3569     0.0000    24.0000 </r>
       <r>     7.3673     0.0000    24.0000 </r>
       <r>     7.3777     0.0000    24.0000 </r>
       <r>     7.3882     0.0000    24.0000 </r>
       <r>     7.3986     0.0000    24.0000 </r>
       <r>     7.4090     0.0000    24.0000 </r>
       <r>     7.4194     0.0000    24.0000 </r>
       <r>     7.4299     0.0000    24.0000 </r>
       <r>     7.4403     0.0000    24.0000 </r>
       <r>     7.4507     0.0000    24.0000 </r>
       <r>     7.4612     0.0000    24.0000 </r>
       <r>     7.4716     0.0000    24.0000 </r>
       <r>     7.4820     0.0000    24.0000 </r>
       <r>     7.4925     0.0000    24.0000 </r>
       <r>     7.5029     0.0000    24.0000 </r>
       <r>     7.5133     0.0000    24.0000 </r>
       <r>     7.5237     0.0000    24.0000 </r>
       <r>     7.5342     0.0000    24.0000 </r>
       <r>     7.5446     0.0000    24.0000 </r>
       <r>     7.5550     0.0000    24.0000 </r>
       <r>     7.5655     0.0000    24.0000 </r>
       <r>     7.5759     0.0000    24.0000 </r>
       <r>     7.5863     0.0000    24.0000 </r>
       <r>     7.5968     0.0000    24.0000 </r>
       <r>     7.6072     0.0000    24.0000 </r>
       <r>     7.6176     0.0000    24.0000 </r>
       <r>     7.6280     0.0000    24.0000 </r>
       <r>     7.6385     0.0000    24.0000 </r>
       <r>     7.6489     0.0000    24.0000 </r>
       <r>     7.6593     0.0000    24.0000 </r>
       <r>     7.6698     0.0000    24.0000 </r>
       <r>     7.6802     0.0000    24.0000 </r>
       <r>     7.6906     0.0000    24.0000 </r>
       <r>     7.7011     0.0000    24.0000 </r>
       <r>     7.7115     0.0000    24.0000 </r>
       <r>     7.7219     0.0000    24.0000 </r>
       <r>     7.7323     0.0000    24.0000 </r>
       <r>     7.7428     0.0000    24.0000 </r>
       <r>     7.7532     0.0000    24.0000 </r>
       <r>     7.7636     0.0000    24.0000 </r>
       <r>     7.7741     0.0000    24.0000 </r>
       <r>     7.7845     0.0000    24.0000 </r>
       <r>     7.7949     0.0000    24.0000 </r>
       <r>     7.8054     0.0000    24.0000 </r>
       <r>     7.8158     0.0000    24.0000 </r>
       <r>     7.8262     0.0000    24.0000 </r>
       <r>     7.8366     0.0000    24.0000 </r>
       <r>     7.8471     0.0000    24.0000 </r>
       <r>     7.8575     0.0000    24.0000 </r>
       <r>     7.8679     0.0000    24.0000 </r>
       <r>     7.8784     0.0000    24.0000 </r>
       <r>     7.8888     0.0000    24.0000 </r>
       <r>     7.8992     0.0000    24.0000 </r>
       <r>     7.9097     0.0000    24.0000 </r>
       <r>     7.9201     0.0000    24.0000 </r>
       <r>     7.9305     0.0000    24.0000 </r>
       <r>     7.9409     0.0000    24.0000 </r>
       <r>     7.9514     0.0000    24.0000 </r>
       <r>     7.9618     0.0000    24.0000 </r>
       <r>     7.9722     0.0000    24.0000 </r>
       <r>     7.9827     0.0000    24.0000 </r>
       <r>     7.9931     0.0000    24.0000 </r>
       <r>     8.0035     0.0000    24.0000 </r>
       <r>     8.0140     0.0000    24.0000 </r>
       <r>     8.0244     0.0000    24.0000 </r>
       <r>     8.0348     0.0000    24.0000 </r>
       <r>     8.0452     0.0000    24.0000 </r>
       <r>     8.0557     0.0000    24.0000 </r>
       <r>     8.0661     0.0000    24.0000 </r>
       <r>     8.0765     0.0000    24.0000 </r>
       <r>     8.0870     0.0000    24.0000 </r>
       <r>     8.0974     0.0000    24.0000 </r>
       <r>     8.1078     0.0000    24.0000 </r>
       <r>     8.1183     0.0000    24.0000 </r>
       <r>     8.1287     0.0000    24.0000 </r>
       <r>     8.1391     0.0000    24.0000 </r>
       <r>     8.1495     0.0000    24.0000 </r>
       <r>     8.1600     0.0000    24.0000 </r>
       <r>     8.1704     0.0000    24.0000 </r>
       <r>     8.1808     0.0000    24.0000 </r>
       <r>     8.1913     0.0000    24.0000 </r>
       <r>     8.2017     0.0000    24.0000 </r>
       <r>     8.2121     0.0000    24.0000 </r>
       <r>     8.2226     0.0000    24.0000 </r>
       <r>     8.2330     0.0000    24.0000 </r>
       <r>     8.2434     0.0000    24.0000 </r>
       <r>     8.2538     0.0000    24.0000 </r>
       <r>     8.2643     0.0000    24.0000 </r>
       <r>     8.2747     0.0000    24.0000 </r>
       <r>     8.2851     0.0000    24.0000 </r>
       <r>     8.2956     0.0000    24.0000 </r>
       <r>     8.3060     0.0000    24.0000 </r>
       <r>     8.3164     0.0000    24.0000 </r>
       <r>     8.3269     0.0000    24.0000 </r>
       <r>     8.3373     0.0000    24.0000 </r>
       <r>     8.3477     0.0000    24.0000 </r>
       <r>     8.3581     0.0000    24.0000 </r>
       <r>     8.3686     0.0000    24.0000 </r>
       <r>     8.3790     0.0000    24.0000 </r>
       <r>     8.3894     0.0000    24.0000 </r>
       <r>     8.3999     0.0000    24.0000 </r>
       <r>     8.4103     0.0000    24.0000 </r>
       <r>     8.4207     0.0000    24.0000 </r>
       <r>     8.4311     0.0000    24.0000 </r>
       <r>     8.4416     0.0000    24.0000 </r>
       <r>     8.4520     0.0000    24.0000 </r>
       <r>     8.4624     0.0000    24.0000 </r>
       <r>     8.4729     0.0000    24.0000 </r>
       <r>     8.4833     0.0000    24.0000 </r>
       <r>     8.4937     0.0000    24.0000 </r>
       <r>     8.5042     0.0000    24.0000 </r>
       <r>     8.5146     0.0000    24.0000 </r>
       <r>     8.5250     0.0000    24.0000 </r>
       <r>     8.5354     0.0000    24.0000 </r>
       <r>     8.5459     0.0000    24.0000 </r>
       <r>     8.5563     0.0000    24.0000 </r>
       <r>     8.5667     0.0000    24.0000 </r>
       <r>     8.5772     0.0000    24.0000 </r>
       <r>     8.5876     0.0000    24.0000 </r>
       <r>     8.5980     0.0000    24.0000 </r>
       <r>     8.6085     0.0000    24.0000 </r>
       <r>     8.6189     0.0000    24.0000 </r>
       <r>     8.6293     0.0000    24.0000 </r>
       <r>     8.6397     0.0000    24.0000 </r>
       <r>     8.6502     0.0000    24.0000 </r>
       <r>     8.6606     0.0000    24.0000 </r>
       <r>     8.6710     0.0000    24.0000 </r>
      </set>
     </set>
    </array>
   </total>
  </dos>
 </calculation>
 <structure name="finalpos" >
  <crystal>
   <varray name="basis" >
    <v>       1.61415312      -2.79579451       0.00000000 </v>
    <v>       1.61415312       2.79579451       0.00000000 </v>
    <v>       0.00000000       0.00000000      34.96267827 </v>
   </varray>
   <i name="volume">    315.56197699 </i>
   <varray name="rec_basis" >
    <v>       0.30975996      -0.17884004       0.00000000 </v>
    <v>       0.30975996       0.17884004       0.00000000 </v>
    <v>       0.00000000       0.00000000       0.02860193 </v>
   </varray>
  </crystal>
  <varray name="positions" >
   <v>       0.66666700       0.33333300       0.10664700 </v>
   <v>       0.33333300       0.66666700       0.06198962 </v>
   <v>       0.33333300       0.66666700       0.15130538 </v>
  </varray>
 </structure>
</modeling>
