       N       E                     dE             d eps       ncg     rms          rms(c)
DAV:   1     0.250305996716E+02    0.25031E+02   -0.11464E+03 78344   0.107E+02
DAV:   2    -0.205481923457E+02   -0.45579E+02   -0.42810E+02 80752   0.640E+01
DAV:   3    -0.220769419409E+02   -0.15287E+01   -0.15136E+01 89152   0.107E+01
DAV:   4    -0.221144402912E+02   -0.37498E-01   -0.37470E-01 86784   0.171E+00
DAV:   5    -0.221155121218E+02   -0.10718E-02   -0.10715E-02 93480   0.268E-01
DAV:   6    -0.221155568179E+02   -0.44696E-04   -0.44686E-04 99008   0.471E-02
DAV:   7    -0.221155575829E+02   -0.76499E-06   -0.76447E-06 95736   0.590E-03
DAV:   8    -0.221155576081E+02   -0.25164E-07   -0.24913E-07 97648   0.908E-04
DAV:   9    -0.221155576090E+02   -0.93132E-09   -0.68980E-09 81280   0.133E-04
   1 F= -.22115558E+02 E0= -.22115558E+02  d E =-.864866E-13  mag=     0.0000     0.0000     0.0000
