 running on    8 total cores
 distrk:  each k-point on    8 cores,    1 groups
 distr:  one band on    1 cores,    8 groups
 using from now: INCAR     
 vasp.5.4.1 05Feb16 (build Feb 01 2017 11:38:15) complex                        
  
 POSCAR found type information on POSCAR  Mo S 
 POSCAR found :  2 types and       3 ions
 scaLAPACK will be used

 ----------------------------------------------------------------------------- 
|                                                                             |
|           W    W    AA    RRRRR   N    N  II  N    N   GGGG   !!!           |
|           W    W   A  A   R    R  NN   N  II  NN   N  G    G  !!!           |
|           W    W  A    A  R    R  N N  N  II  N N  N  G       !!!           |
|           W WW W  AAAAAA  RRRRR   N  N N  II  N  N N  G  GGG   !            |
|           WW  WW  A    A  R   R   N   NN  II  N   NN  G    G                |
|           W    W  A    A  R    R  N    N  II  N    N   GGGG   !!!           |
|                                                                             |
|      For optimal performance we recommend to set                            |
|        NCORE= 4 - approx SQRT( number of cores)                             |
|      NCORE specifies how many cores store one orbital (NPAR=cpu/NCORE).     |
|      This setting can  greatly improve the performance of VASP for DFT.     |
|      The default, NPAR=number of cores might be grossly inefficient         |
|      on modern multi-core architectures or massively parallel machines.     |
|      Do your own testing !!!!                                               |
|      Unfortunately you need to use the default for GW and RPA calculations. |
|      (for HF NCORE is supported but not extensively tested yet)             |
|                                                                             |
 ----------------------------------------------------------------------------- 

 LDA part: xc-table for Pade appr. of Perdew
 found WAVECAR, reading the header
  number of k-points has changed, file:   144 present:   576
  trying to continue reading WAVECAR, but it might fail
 WARNING: stress and forces are not correct
 POSCAR, INCAR and KPOINTS ok, starting setup
 FFT: planning ...
 reading WAVECAR
 the WAVECAR file was read successfully
 reading imaginary part of occupancies ...
 charge-density read from file: MoS2                                    
 reading imaginary part of occupancies ...
 magnetization density read from file 1
 reading imaginary part of occupancies ...
 magnetization density read from file 2
 reading imaginary part of occupancies ...
 magnetization density read from file 3
 entering main loop
       N       E                     dE             d eps       ncg     rms          ort
 gam= 0.000 g(H,U,f)=  0.138E+03 0.547E+02 0.207E-32 ort(H,U,f) = 0.000E+00 0.000E+00 0.000E+00
SDA:   1     0.996584120615E+02    0.99658E+02    0.00000E+00 23040   0.192E+03 0.000E+00
 gam= 0.000 trial= 0.400  step= 0.830 mean= 0.400
 gam= 0.704 g(H,U,f)=  0.116E+03 0.179E+02 0.111E+01 ort(H,U,f) =-0.465E+02 0.227E+02-0.113E+01
CGA:   2     0.269279617776E+02   -0.72730E+02   -0.79756E+02 23040   0.135E+03-0.250E+02
 gam= 0.704 trial= 0.421  step= 0.417 mean= 0.421
 gam= 0.326 g(H,U,f)=  0.369E+02 0.584E+01 0.138E+01 ort(H,U,f) =-0.744E+01 0.130E+02-0.102E+01
CGA:   3     0.243428548219E+01   -0.24494E+02   -0.24528E+02 23040   0.441E+02 0.458E+01
 gam= 0.326 trial= 0.421  step= 0.411 mean= 0.421
 gam= 0.646 g(H,U,f)=  0.232E+02 0.292E+01 0.237E+01 ort(H,U,f) =-0.741E+01 0.633E+01 0.116E+01
CGA:   4    -0.694083199829E+01   -0.93751E+01   -0.93865E+01 23040   0.285E+02 0.730E-01
 gam= 0.646 trial= 0.421  step= 0.539 mean= 0.421
 gam= 0.603 g(H,U,f)=  0.144E+02 0.833E+00 0.199E+01 ort(H,U,f) =-0.506E+01 0.316E+01 0.289E+01
CGA:   5    -0.147262639195E+02   -0.77854E+01   -0.76884E+01 23040   0.172E+02 0.100E+01
 gam= 0.603 trial= 0.427  step= 0.443 mean= 0.427
 gam= 0.408 g(H,U,f)=  0.633E+01 0.265E+00 0.415E+00 ort(H,U,f) =-0.230E+01 0.958E+00 0.870E+00
CGA:   6    -0.186740261790E+02   -0.39478E+01   -0.39459E+01 23040   0.701E+01-0.471E+00
 gam= 0.408 trial= 0.428  step= 0.508 mean= 0.428
 gam= 0.493 g(H,U,f)=  0.304E+01 0.151E+00 0.268E+00 ort(H,U,f) =-0.103E+01 0.175E+00 0.787E+00
CGA:   7    -0.203916819016E+02   -0.17177E+01   -0.17330E+01 23040   0.346E+01-0.643E-01
 gam= 0.493 trial= 0.432  step= 0.409 mean= 0.432
 gam= 0.306 g(H,U,f)=  0.927E+00 0.130E+00 0.142E-02 ort(H,U,f) =-0.265E-01 0.155E+00 0.523E-02
CGA:   8    -0.210875754298E+02   -0.69589E+00   -0.69967E+00 23040   0.106E+01 0.134E+00
 gam= 0.306 trial= 0.430  step= 0.985 mean= 0.430
 gam= 0.000 g(H,U,f)=  0.161E+01 0.526E-01 0.870E-11 ort(H,U,f) =-0.933E+00 0.449E-01 0.756E-10
CGA:   9    -0.213208379050E+02   -0.23326E+00   -0.54146E+00 23040   0.167E+01-0.888E+00
 gam= 0.000 trial= 0.458  step= 0.351 mean= 0.458
 gam= 0.197 g(H,U,f)=  0.288E+00 0.397E-01 0.423E-11 ort(H,U,f) =-0.463E-01 0.461E-01 0.463E-11
CGA:  10    -0.216129411289E+02   -0.29210E+00   -0.29213E+00 23040   0.327E+00-0.153E-03
 gam= 0.197 trial= 0.453  step= 0.540 mean= 0.453
 gam= 0.316 g(H,U,f)=  0.812E-01 0.221E-01 0.547E-11 ort(H,U,f) =-0.373E-01 0.370E-01 0.876E-11
CGA:  11    -0.217013906481E+02   -0.88450E-01   -0.88463E-01 23040   0.103E+00-0.283E-03
 gam= 0.316 trial= 0.457  step= 0.617 mean= 0.457
 gam= 0.441 g(H,U,f)=  0.367E-01 0.893E-02 0.797E-24 ort(H,U,f) =-0.222E-01 0.219E-01 0.185E-23
CGA:  12    -0.217331973198E+02   -0.31807E-01   -0.31832E-01 23040   0.456E-01-0.249E-03
 gam= 0.441 trial= 0.465  step= 0.648 mean= 0.465
 gam= 0.359 g(H,U,f)=  0.144E-01 0.199E-02 0.219E-19 ort(H,U,f) =-0.917E-02 0.897E-02 0.928E-19
CGA:  13    -0.217479068492E+02   -0.14710E-01   -0.14732E-01 23040   0.164E-01-0.196E-03
 gam= 0.359 trial= 0.474  step= 0.640 mean= 0.474
 gam= 0.306 g(H,U,f)=  0.477E-02 0.232E-03 0.499E-26 ort(H,U,f) =-0.185E-02 0.179E-02 0.349E-25
CGA:  14    -0.217531128305E+02   -0.52060E-02   -0.52118E-02 23040   0.501E-02-0.572E-04
 gam= 0.306 trial= 0.483  step= 0.618 mean= 0.483
 gam= 0.238 g(H,U,f)=  0.118E-02 0.996E-05 0.554E-17 ort(H,U,f) =-0.140E-03 0.130E-03 0.748E-16
CGA:  15    -0.217546531685E+02   -0.15403E-02   -0.15411E-02 23040   0.119E-02-0.943E-05
 gam= 0.238 trial= 0.489  step= 0.626 mean= 0.489
 gam= 0.224 g(H,U,f)=  0.263E-03 0.374E-05 0.198E-18 ort(H,U,f) = 0.135E-04-0.150E-04 0.127E-16
CGA:  16    -0.217550252945E+02   -0.37213E-03   -0.37224E-03 23040   0.267E-03-0.148E-05
 gam= 0.224 trial= 0.496  step= 0.668 mean= 0.496
 gam= 0.238 g(H,U,f)=  0.593E-04 0.420E-05 0.469E-32 ort(H,U,f) = 0.149E-05-0.179E-05-0.141E-31
CGA:  17    -0.217551142517E+02   -0.88957E-04   -0.88986E-04 23040   0.635E-04-0.300E-06
 gam= 0.238 trial= 0.505  step= 0.725 mean= 0.505
 gam= 0.289 g(H,U,f)=  0.160E-04 0.235E-05 0.182E-24 ort(H,U,f) =-0.278E-05 0.269E-05 0.555E-25
CGA:  18    -0.217551372157E+02   -0.22964E-04   -0.22974E-04 23040   0.184E-04-0.838E-07
 gam= 0.289 trial= 0.516  step= 0.791 mean= 0.516
 gam= 0.324 g(H,U,f)=  0.515E-05 0.800E-06 0.161E-28 ort(H,U,f) =-0.184E-05 0.180E-05 0.267E-28
CGA:  19    -0.217551444618E+02   -0.72461E-05   -0.72520E-05 23040   0.595E-05-0.325E-07
 gam= 0.324 trial= 0.530  step= 0.843 mean= 0.530
 gam= 0.327 g(H,U,f)=  0.180E-05 0.141E-06 0.744E-22 ort(H,U,f) =-0.589E-06 0.570E-06 0.237E-21
CGA:  20    -0.217551469607E+02   -0.24989E-05   -0.25033E-05 23040   0.194E-05-0.189E-07
 gam= 0.327 trial= 0.545  step= 0.827 mean= 0.545
 gam= 0.294 g(H,U,f)=  0.562E-06 0.959E-08 0.153E-32 ort(H,U,f) =-0.794E-07 0.702E-07 0.964E-32
CGA:  21    -0.217551477589E+02   -0.79819E-06   -0.80113E-06 23040   0.572E-06-0.927E-08
 gam= 0.294 trial= 0.559  step= 0.817 mean= 0.559
 gam= 0.293 g(H,U,f)=  0.165E-06 0.252E-08 0.248E-36 ort(H,U,f) = 0.751E-08-0.874E-08 0.794E-35
CGA:  22    -0.217551479900E+02   -0.23110E-06   -0.23245E-06 23040   0.168E-06-0.123E-08
 gam= 0.293 trial= 0.572  step= 0.851 mean= 0.572
