    3    3    1    2
  0.1031147E+03  0.3196342E-09  0.3196342E-09  0.3496268E-08  0.5000000E-15
  1.000000000000000E-004
  CAR 
 MoS2 band (SOC OFF)                     
     24    240     24
 
  0.0000000E+00  0.0000000E+00  0.0000000E+00  0.4166667E-02
    1      -38.873384    -38.873384   1.000000   1.000000
    2      -38.687880    -38.687880   1.000000   1.000000
    3      -38.687872    -38.687872   1.000000   1.000000
    4      -17.871753    -17.871753   1.000000   1.000000
    5      -16.566171    -16.566171   1.000000   1.000000
    6       -9.395710     -9.395710   1.000000   1.000000
    7       -6.441164     -6.441164   1.000000   1.000000
    8       -6.441156     -6.441156   1.000000   1.000000
    9       -5.557149     -5.557149   1.000000   1.000000
   10       -5.333063     -5.333063   1.000000   1.000000
   11       -5.333004     -5.333004   1.000000   1.000000
   12       -3.811368     -3.811368   1.000000   1.000000
   13       -1.080711     -1.080711   0.000000   0.000000
   14       -1.080658     -1.080658   0.000000   0.000000
   15       -0.847217     -0.847217   0.000000   0.000000
   16       -0.847191     -0.847191   0.000000   0.000000
   17        1.552089      1.551796   0.000000   0.000000
   18        1.724186      1.723708   0.000000   0.000000
   19        2.021215      2.021816   0.000000   0.000000
   20        2.269781      2.270190   0.000000   0.000000
   21        2.420010      2.419633   0.000000   0.000000
   22        2.700541      2.700521   0.000000   0.000000
   23        3.016909      3.016597   0.000000   0.000000
   24        3.497064      3.496853   0.000000   0.000000
 
  0.4219405E-02  0.4219405E-02  0.0000000E+00  0.4166667E-02
    1      -38.873347    -38.873347   1.000000   1.000000
    2      -38.688070    -38.688070   1.000000   1.000000
    3      -38.687915    -38.687915   1.000000   1.000000
    4      -17.870967    -17.870967   1.000000   1.000000
    5      -16.565849    -16.565849   1.000000   1.000000
    6       -9.394795     -9.394795   1.000000   1.000000
    7       -6.442997     -6.442997   1.000000   1.000000
    8       -6.440336     -6.440336   1.000000   1.000000
    9       -5.567683     -5.567683   1.000000   1.000000
   10       -5.334332     -5.334332   1.000000   1.000000
   11       -5.323640     -5.323640   1.000000   1.000000
   12       -3.811724     -3.811724   1.000000   1.000000
   13       -1.082027     -1.082027   0.000000   0.000000
   14       -1.079266     -1.079266   0.000000   0.000000
   15       -0.849695     -0.849695   0.000000   0.000000
   16       -0.848117     -0.848117   0.000000   0.000000
   17        1.553770      1.553476   0.000000   0.000000
   18        1.725235      1.724758   0.000000   0.000000
   19        2.022334      2.022936   0.000000   0.000000
   20        2.270826      2.271235   0.000000   0.000000
   21        2.422389      2.422010   0.000000   0.000000
   22        2.702642      2.702624   0.000000   0.000000
   23        3.017946      3.017634   0.000000   0.000000
   24        3.498187      3.497977   0.000000   0.000000
 
  0.8438810E-02  0.8438810E-02  0.0000000E+00  0.4166667E-02
    1      -38.873236    -38.873236   1.000000   1.000000
    2      -38.688641    -38.688641   1.000000   1.000000
    3      -38.688045    -38.688045   1.000000   1.000000
    4      -17.868607    -17.868607   1.000000   1.000000
    5      -16.564881    -16.564881   1.000000   1.000000
    6       -9.392051     -9.392051   1.000000   1.000000
    7       -6.448510     -6.448510   1.000000   1.000000
    8       -6.437855     -6.437855   1.000000   1.000000
    9       -5.595226     -5.595226   1.000000   1.000000
   10       -5.338312     -5.338312   1.000000   1.000000
   11       -5.299420     -5.299420   1.000000   1.000000
   12       -3.812798     -3.812798   1.000000   1.000000
   13       -1.086106     -1.086106   0.000000   0.000000
   14       -1.074933     -1.074933   0.000000   0.000000
   15       -0.857079     -0.857079   0.000000   0.000000
   16       -0.850889     -0.850889   0.000000   0.000000
   17        1.558777      1.558482   0.000000   0.000000
   18        1.728384      1.727907   0.000000   0.000000
   19        2.025688      2.026291   0.000000   0.000000
   20        2.273962      2.274371   0.000000   0.000000
   21        2.429461      2.429079   0.000000   0.000000
   22        2.709000      2.708985   0.000000   0.000000
   23        3.021056      3.020744   0.000000   0.000000
   24        3.501560      3.501350   0.000000   0.000000
 
  0.1265822E-01  0.1265822E-01  0.0000000E+00  0.4166667E-02
    1      -38.873052    -38.873052   1.000000   1.000000
    2      -38.689593    -38.689593   1.000000   1.000000
    3      -38.688261    -38.688261   1.000000   1.000000
    4      -17.864676    -17.864676   1.000000   1.000000
    5      -16.563269    -16.563269   1.000000   1.000000
    6       -9.387484     -9.387484   1.000000   1.000000
    7       -6.457657     -6.457657   1.000000   1.000000
    8       -6.433723     -6.433723   1.000000   1.000000
    9       -5.632978     -5.632978   1.000000   1.000000
   10       -5.344955     -5.344955   1.000000   1.000000
   11       -5.267193     -5.267193   1.000000   1.000000
   12       -3.814608     -3.814608   1.000000   1.000000
   13       -1.092803     -1.092803   0.000000   0.000000
   14       -1.067726     -1.067726   0.000000   0.000000
   15       -0.869225     -0.869225   0.000000   0.000000
   16       -0.855497     -0.855497   0.000000   0.000000
   17        1.567015      1.566717   0.000000   0.000000
   18        1.733628      1.733150   0.000000   0.000000
   19        2.031265      2.031870   0.000000   0.000000
   20        2.279187      2.279596   0.000000   0.000000
   21        2.441032      2.440644   0.000000   0.000000
   22        2.719777      2.719768   0.000000   0.000000
   23        3.026238      3.025926   0.000000   0.000000
   24        3.507186      3.506976   0.000000   0.000000
 
  0.1687762E-01  0.1687762E-01  0.0000000E+00  0.4166667E-02
    1      -38.872795    -38.872795   1.000000   1.000000
    2      -38.690923    -38.690923   1.000000   1.000000
    3      -38.688565    -38.688565   1.000000   1.000000
    4      -17.859178    -17.859178   1.000000   1.000000
    5      -16.561015    -16.561015   1.000000   1.000000
    6       -9.381110     -9.381110   1.000000   1.000000
    7       -6.470379     -6.470379   1.000000   1.000000
    8       -6.427951     -6.427951   1.000000   1.000000
    9       -5.676449     -5.676449   1.000000   1.000000
   10       -5.354278     -5.354278   1.000000   1.000000
   11       -5.231433     -5.231433   1.000000   1.000000
   12       -3.817183     -3.817183   1.000000   1.000000
   13       -1.101975     -1.101975   0.000000   0.000000
   14       -1.057674     -1.057674   0.000000   0.000000
   15       -0.885906     -0.885906   0.000000   0.000000
   16       -0.861928     -0.861928   0.000000   0.000000
   17        1.578334      1.578032   0.000000   0.000000
   18        1.740962      1.740485   0.000000   0.000000
   19        2.039046      2.039654   0.000000   0.000000
   20        2.286502      2.286910   0.000000   0.000000
   21        2.456777      2.456380   0.000000   0.000000
   22        2.735239      2.735239   0.000000   0.000000
   23        3.033490      3.033178   0.000000   0.000000
   24        3.515074      3.514864   0.000000   0.000000
 
  0.2109703E-01  0.2109703E-01  0.0000000E+00  0.4166667E-02
    1      -38.872465    -38.872465   1.000000   1.000000
    2      -38.692627    -38.692627   1.000000   1.000000
    3      -38.688956    -38.688956   1.000000   1.000000
    4      -17.852120    -17.852120   1.000000   1.000000
    5      -16.558122    -16.558122   1.000000   1.000000
    6       -9.372946     -9.372946   1.000000   1.000000
    7       -6.486593     -6.486593   1.000000   1.000000
    8       -6.420550     -6.420550   1.000000   1.000000
    9       -5.723291     -5.723292   1.000000   1.000000
   10       -5.366299     -5.366299   1.000000   1.000000
   11       -5.194465     -5.194465   1.000000   1.000000
   12       -3.820565     -3.820565   1.000000   1.000000
   13       -1.113425     -1.113425   0.000000   0.000000
   14       -1.044809     -1.044809   0.000000   0.000000
   15       -0.906820     -0.906820   0.000000   0.000000
   16       -0.870158     -0.870158   0.000000   0.000000
   17        1.592543      1.592238   0.000000   0.000000
   18        1.750381      1.749904   0.000000   0.000000
   19        2.049009      2.049620   0.000000   0.000000
   20        2.295903      2.296311   0.000000   0.000000
   21        2.476242      2.475837   0.000000   0.000000
   22        2.755747      2.755756   0.000000   0.000000
   23        3.042810      3.042498   0.000000   0.000000
   24        3.525234      3.525024   0.000000   0.000000
 
  0.2531643E-01  0.2531643E-01  0.0000000E+00  0.4166667E-02
    1      -38.872063    -38.872063   1.000000   1.000000
    2      -38.694700    -38.694700   1.000000   1.000000
    3      -38.689435    -38.689435   1.000000   1.000000
    4      -17.843512    -17.843512   1.000000   1.000000
    5      -16.554592    -16.554592   1.000000   1.000000
    6       -9.363017     -9.363017   1.000000   1.000000
    7       -6.506194     -6.506194   1.000000   1.000000
    8       -6.411536     -6.411535   1.000000   1.000000
    9       -5.772268     -5.772268   1.000000   1.000000
   10       -5.381041     -5.381041   1.000000   1.000000
   11       -5.157495     -5.157495   1.000000   1.000000
   12       -3.824805     -3.824805   1.000000   1.000000
   13       -1.126916     -1.126916   0.000000   0.000000
   14       -1.029176     -1.029176   0.000000   0.000000
   15       -0.931608     -0.931608   0.000000   0.000000
   16       -0.880159     -0.880159   0.000000   0.000000
   17        1.609434      1.609124   0.000000   0.000000
   18        1.761875      1.761398   0.000000   0.000000
   19        2.061129      2.061744   0.000000   0.000000
   20        2.307389      2.307798   0.000000   0.000000
   21        2.498874      2.498460   0.000000   0.000000
   22        2.781725      2.781743   0.000000   0.000000
   23        3.054195      3.053882   0.000000   0.000000
   24        3.537685      3.537475   0.000000   0.000000
 
  0.2953584E-01  0.2953584E-01  0.0000000E+00  0.4166667E-02
    1      -38.871590    -38.871590   1.000000   1.000000
    2      -38.697137    -38.697137   1.000000   1.000000
    3      -38.690001    -38.690001   1.000000   1.000000
    4      -17.833364    -17.833364   1.000000   1.000000
    5      -16.550431    -16.550431   1.000000   1.000000
    6       -9.351351     -9.351351   1.000000   1.000000
    7       -6.529060     -6.529060   1.000000   1.000000
    8       -6.400927     -6.400927   1.000000   1.000000
    9       -5.822669     -5.822669   1.000000   1.000000
   10       -5.398532     -5.398532   1.000000   1.000000
   11       -5.121197     -5.121197   1.000000   1.000000
   12       -3.829964     -3.829964   1.000000   1.000000
   13       -1.142170     -1.142170   0.000000   0.000000
   14       -1.010832     -1.010832   0.000000   0.000000
   15       -0.959861     -0.959861   0.000000   0.000000
   16       -0.891895     -0.891895   0.000000   0.000000
   17        1.628790      1.628474   0.000000   0.000000
   18        1.775437      1.774960   0.000000   0.000000
   19        2.075383      2.076001   0.000000   0.000000
   20        2.320959      2.321367   0.000000   0.000000
   21        2.524060      2.523638   0.000000   0.000000
   22        2.813606      2.813633   0.000000   0.000000
   23        3.067641      3.067328   0.000000   0.000000
   24        3.552451      3.552242   0.000000   0.000000
 
  0.3375524E-01  0.3375524E-01  0.0000000E+00  0.4166667E-02
    1      -38.871048    -38.871048   1.000000   1.000000
    2      -38.699931    -38.699931   1.000000   1.000000
    3      -38.690654    -38.690654   1.000000   1.000000
    4      -17.821687    -17.821687   1.000000   1.000000
    5      -16.545643    -16.545643   1.000000   1.000000
    6       -9.337985     -9.337985   1.000000   1.000000
    7       -6.555048     -6.555048   1.000000   1.000000
    8       -6.388749     -6.388749   1.000000   1.000000
    9       -5.874044     -5.874044   1.000000   1.000000
   10       -5.418799     -5.418799   1.000000   1.000000
   11       -5.085977     -5.085977   1.000000   1.000000
   12       -3.836117     -3.836117   1.000000   1.000000
   13       -1.158883     -1.158883   0.000000   0.000000
   14       -0.991146     -0.991146   0.000000   0.000000
   15       -0.989840     -0.989840   0.000000   0.000000
   16       -0.905323     -0.905323   0.000000   0.000000
   17        1.650403      1.650082   0.000000   0.000000
   18        1.791055      1.790579   0.000000   0.000000
   19        2.091747      2.092369   0.000000   0.000000
   20        2.336610      2.337018   0.000000   0.000000
   21        2.551202      2.550775   0.000000   0.000000
   22        2.851758      2.851793   0.000000   0.000000
   23        3.083144      3.082832   0.000000   0.000000
   24        3.569566      3.569358   0.000000   0.000000
 
  0.3797465E-01  0.3797465E-01  0.0000000E+00  0.4166667E-02
    1      -38.870436    -38.870436   1.000000   1.000000
    2      -38.703072    -38.703072   1.000000   1.000000
    3      -38.691395    -38.691395   1.000000   1.000000
    4      -17.808496    -17.808496   1.000000   1.000000
    5      -16.540234    -16.540235   1.000000   1.000000
    6       -9.322959     -9.322959   1.000000   1.000000
    7       -6.583997     -6.583997   1.000000   1.000000
    8       -6.375028     -6.375028   1.000000   1.000000
    9       -5.926079     -5.926079   1.000000   1.000000
   10       -5.441865     -5.441865   1.000000   1.000000
   11       -5.052098     -5.052098   1.000000   1.000000
   12       -3.843341     -3.843341   1.000000   1.000000
   13       -1.176725     -1.176725   0.000000   0.000000
   14       -1.025004     -1.025004   0.000000   0.000000
   15       -0.966278     -0.966278   0.000000   0.000000
   16       -0.920383     -0.920383   0.000000   0.000000
   17        1.674086      1.673760   0.000000   0.000000
   18        1.808721      1.808245   0.000000   0.000000
   19        2.110203      2.110828   0.000000   0.000000
   20        2.354340      2.354747   0.000000   0.000000
   21        2.579799      2.579368   0.000000   0.000000
   22        2.896404      2.896444   0.000000   0.000000
   23        3.100701      3.100388   0.000000   0.000000
   24        3.589080      3.588873   0.000000   0.000000
 
  0.4219405E-01  0.4219405E-01  0.0000000E+00  0.4166667E-02
    1      -38.869757    -38.869757   1.000000   1.000000
    2      -38.706553    -38.706553   1.000000   1.000000
    3      -38.692223    -38.692223   1.000000   1.000000
    4      -17.793808    -17.793808   1.000000   1.000000
    5      -16.534211    -16.534211   1.000000   1.000000
    6       -9.306320     -9.306320   1.000000   1.000000
    7       -6.615736     -6.615736   1.000000   1.000000
    8       -6.359798     -6.359798   1.000000   1.000000
    9       -5.978540     -5.978540   1.000000   1.000000
   10       -5.467753     -5.467753   1.000000   1.000000
   11       -5.019739     -5.019739   1.000000   1.000000
   12       -3.851724     -3.851724   1.000000   1.000000
   13       -1.195364     -1.195364   0.000000   0.000000
   14       -1.060980     -1.060980   0.000000   0.000000
   15       -0.940347     -0.940347   0.000000   0.000000
   16       -0.936898     -0.936898   0.000000   0.000000
   17        1.699679      1.699347   0.000000   0.000000
   18        1.828422      1.827946   0.000000   0.000000
   19        2.130734      2.131362   0.000000   0.000000
   20        2.374146      2.374553   0.000000   0.000000
   21        2.609496      2.609065   0.000000   0.000000
   22        2.947555      2.947596   0.000000   0.000000
   23        3.120307      3.119994   0.000000   0.000000
   24        3.611058      3.610852   0.000000   0.000000
 
  0.4641346E-01  0.4641346E-01  0.0000000E+00  0.4166667E-02
    1      -38.869011    -38.869011   1.000000   1.000000
    2      -38.710362    -38.710362   1.000000   1.000000
    3      -38.693138    -38.693138   1.000000   1.000000
    4      -17.777639    -17.777639   1.000000   1.000000
    5      -16.527580    -16.527580   1.000000   1.000000
    6       -9.288122     -9.288122   1.000000   1.000000
    7       -6.650069     -6.650069   1.000000   1.000000
    8       -6.343093     -6.343093   1.000000   1.000000
    9       -6.031235     -6.031235   1.000000   1.000000
   10       -5.496479     -5.496479   1.000000   1.000000
   11       -4.989026     -4.989026   1.000000   1.000000
   12       -3.861358     -3.861358   1.000000   1.000000
   13       -1.214457     -1.214457   0.000000   0.000000
   14       -1.098618     -1.098619   0.000000   0.000000
   15       -0.955175     -0.955175   0.000000   0.000000
   16       -0.911753     -0.911753   0.000000   0.000000
   17        1.727049      1.726713   0.000000   0.000000
   18        1.850148      1.849673   0.000000   0.000000
   19        2.153327      2.153958   0.000000   0.000000
   20        2.396025      2.396431   0.000000   0.000000
   21        2.640113      2.639683   0.000000   0.000000
   22        3.004998      3.005038   0.000000   0.000000
   23        3.141957      3.141644   0.000000   0.000000
   24        3.635593      3.635389   0.000000   0.000000
 
  0.5063286E-01  0.5063286E-01  0.0000000E+00  0.4166667E-02
    1      -38.868200    -38.868200   1.000000   1.000000
    2      -38.714488    -38.714488   1.000000   1.000000
    3      -38.694140    -38.694140   1.000000   1.000000
    4      -17.760009    -17.760009   1.000000   1.000000
    5      -16.520350    -16.520350   1.000000   1.000000
    6       -9.268426     -9.268426   1.000000   1.000000
    7       -6.686803     -6.686803   1.000000   1.000000
    8       -6.324959     -6.324959   1.000000   1.000000
    9       -6.084006     -6.084006   1.000000   1.000000
   10       -5.528052     -5.528052   1.000000   1.000000
   11       -4.960052     -4.960052   1.000000   1.000000
   12       -3.872341     -3.872341   1.000000   1.000000
   13       -1.233673     -1.233673   0.000000   0.000000
   14       -1.137483     -1.137483   0.000000   0.000000
   15       -0.974714     -0.974714   0.000000   0.000000
   16       -0.881018     -0.881018   0.000000   0.000000
   17        1.756096      1.755754   0.000000   0.000000
   18        1.873887      1.873413   0.000000   0.000000
   19        2.177972      2.178606   0.000000   0.000000
   20        2.419975      2.420381   0.000000   0.000000
   21        2.671606      2.671180   0.000000   0.000000
   22        3.068308      3.068345   0.000000   0.000000
   23        3.165647      3.165333   0.000000   0.000000
   24        3.662812      3.662610   0.000000   0.000000
 
  0.5485227E-01  0.5485227E-01  0.0000000E+00  0.4166667E-02
    1      -38.867326    -38.867326   1.000000   1.000000
    2      -38.718922    -38.718922   1.000000   1.000000
    3      -38.695230    -38.695230   1.000000   1.000000
    4      -17.740942    -17.740942   1.000000   1.000000
    5      -16.512529    -16.512529   1.000000   1.000000
    6       -9.247301     -9.247301   1.000000   1.000000
    7       -6.725727     -6.725727   1.000000   1.000000
    8       -6.305445     -6.305445   1.000000   1.000000
    9       -6.136715     -6.136715   1.000000   1.000000
   10       -5.562472     -5.562472   1.000000   1.000000
   11       -4.932882     -4.932882   1.000000   1.000000
   12       -3.884769     -3.884769   1.000000   1.000000
   13       -1.252684     -1.252684   0.000000   0.000000
   14       -1.177154     -1.177155   0.000000   0.000000
   15       -0.995565     -0.995565   0.000000   0.000000
   16       -0.848101     -0.848101   0.000000   0.000000
   17        1.786742      1.786397   0.000000   0.000000
   18        1.899628      1.899155   0.000000   0.000000
   19        2.204663      2.205299   0.000000   0.000000
   20        2.445993      2.446398   0.000000   0.000000
   21        2.704034      2.703612   0.000000   0.000000
   22        3.136895      3.136927   0.000000   0.000000
   23        3.191370      3.191057   0.000000   0.000000
   24        3.692892      3.692692   0.000000   0.000000
 
  0.5907167E-01  0.5907167E-01  0.0000000E+00  0.4166667E-02
    1      -38.866390    -38.866390   1.000000   1.000000
    2      -38.723651    -38.723651   1.000000   1.000000
    3      -38.696408    -38.696408   1.000000   1.000000
    4      -17.720458    -17.720458   1.000000   1.000000
    5      -16.504127    -16.504128   1.000000   1.000000
    6       -9.224821     -9.224821   1.000000   1.000000
    7       -6.766625     -6.766625   1.000000   1.000000
    8       -6.284608     -6.284608   1.000000   1.000000
    9       -6.189241     -6.189241   1.000000   1.000000
   10       -5.599727     -5.599727   1.000000   1.000000
   11       -4.907562     -4.907562   1.000000   1.000000
   12       -3.898738     -3.898738   1.000000   1.000000
   13       -1.271188     -1.271188   0.000000   0.000000
   14       -1.217239     -1.217240   0.000000   0.000000
   15       -1.017610     -1.017610   0.000000   0.000000
   16       -0.813125     -0.813125   0.000000   0.000000
   17        1.818934      1.818584   0.000000   0.000000
   18        1.927360      1.926887   0.000000   0.000000
   19        2.233395      2.234033   0.000000   0.000000
   20        2.474077      2.474481   0.000000   0.000000
   21        2.737508      2.737091   0.000000   0.000000
   22        3.210028      3.210054   0.000000   0.000000
   23        3.219123      3.218809   0.000000   0.000000
   24        3.726080      3.725884   0.000000   0.000000
 
  0.6329108E-01  0.6329108E-01  0.0000000E+00  0.4166667E-02
    1      -38.865396    -38.865396   1.000000   1.000000
    2      -38.728663    -38.728663   1.000000   1.000000
    3      -38.697675    -38.697675   1.000000   1.000000
    4      -17.698585    -17.698585   1.000000   1.000000
    5      -16.495155    -16.495155   1.000000   1.000000
    6       -9.201070     -9.201070   1.000000   1.000000
    7       -6.809270     -6.809270   1.000000   1.000000
    8       -6.262512     -6.262512   1.000000   1.000000
    9       -6.241474     -6.241474   1.000000   1.000000
   10       -5.639789     -5.639789   1.000000   1.000000
   11       -4.884124     -4.884124   1.000000   1.000000
   12       -3.914338     -3.914338   1.000000   1.000000
   13       -1.288898     -1.288898   0.000000   0.000000
   14       -1.257377     -1.257377   0.000000   0.000000
   15       -1.040717     -1.040717   0.000000   0.000000
   16       -0.776221     -0.776221   0.000000   0.000000
   17        1.852634      1.852281   0.000000   0.000000
   18        1.957070      1.956599   0.000000   0.000000
   19        2.264166      2.264805   0.000000   0.000000
   20        2.504223      2.504626   0.000000   0.000000
   21        2.772155      2.771743   0.000000   0.000000
   22        3.248899      3.248585   0.000000   0.000000
   23        3.286847      3.286865   0.000000   0.000000
   24        3.762721      3.762530   0.000000   0.000000
 
  0.6751048E-01  0.6751048E-01  0.0000000E+00  0.4166667E-02
    1      -38.864344    -38.864344   1.000000   1.000000
    2      -38.733942    -38.733942   1.000000   1.000000
    3      -38.699030    -38.699030   1.000000   1.000000
    4      -17.675348    -17.675348   1.000000   1.000000
    5      -16.485623    -16.485623   1.000000   1.000000
    6       -9.176142     -9.176142   1.000000   1.000000
    7       -6.853433     -6.853433   1.000000   1.000000
    8       -6.293317     -6.293317   1.000000   1.000000
    9       -6.239230     -6.239230   1.000000   1.000000
   10       -5.682619     -5.682619   1.000000   1.000000
   11       -4.862585     -4.862585   1.000000   1.000000
   12       -3.931652     -3.931652   1.000000   1.000000
   13       -1.305578     -1.305578   0.000000   0.000000
   14       -1.297213     -1.297214   0.000000   0.000000
   15       -1.064734     -1.064734   0.000000   0.000000
   16       -0.737524     -0.737524   0.000000   0.000000
   17        1.887822      1.887467   0.000000   0.000000
   18        1.988747      1.988277   0.000000   0.000000
   19        2.296973      2.297614   0.000000   0.000000
   20        2.536429      2.536831   0.000000   0.000000
   21        2.808102      2.807694   0.000000   0.000000
   22        3.280693      3.280378   0.000000   0.000000
   23        3.366355      3.366364   0.000000   0.000000
   24        3.803295      3.803111   0.000000   0.000000
 
  0.7172989E-01  0.7172989E-01  0.0000000E+00  0.4166667E-02
    1      -38.863237    -38.863237   1.000000   1.000000
    2      -38.739476    -38.739476   1.000000   1.000000
    3      -38.700474    -38.700474   1.000000   1.000000
    4      -17.650776    -17.650776   1.000000   1.000000
    5      -16.475542    -16.475542   1.000000   1.000000
    6       -9.150138     -9.150138   1.000000   1.000000
    7       -6.898870     -6.898870   1.000000   1.000000
    8       -6.344682     -6.344682   1.000000   1.000000
    9       -6.214843     -6.214842   1.000000   1.000000
   10       -5.728153     -5.728153   1.000000   1.000000
   11       -4.842951     -4.842951   1.000000   1.000000
   12       -3.950746     -3.950746   1.000000   1.000000
   13       -1.336589     -1.336589   0.000000   0.000000
   14       -1.320868     -1.320868   0.000000   0.000000
   15       -1.089491     -1.089491   0.000000   0.000000
   16       -0.697178     -0.697178   0.000000   0.000000
   17        1.924486      1.924128   0.000000   0.000000
   18        2.022378      2.021909   0.000000   0.000000
   19        2.331818      2.332459   0.000000   0.000000
   20        2.570691      2.571092   0.000000   0.000000
   21        2.845461      2.845056   0.000000   0.000000
   22        3.314498      3.314183   0.000000   0.000000
   23        3.447388      3.447385   0.000000   0.000000
   24        3.848453      3.848278   0.000000   0.000000
 
  0.7594929E-01  0.7594929E-01  0.0000000E+00  0.4166667E-02
    1      -38.862076    -38.862076   1.000000   1.000000
    2      -38.745248    -38.745248   1.000000   1.000000
    3      -38.702006    -38.702006   1.000000   1.000000
    4      -17.624899    -17.624899   1.000000   1.000000
    5      -16.464926    -16.464926   1.000000   1.000000
    6       -9.123173     -9.123173   1.000000   1.000000
    7       -6.945345     -6.945345   1.000000   1.000000
    8       -6.395492     -6.395492   1.000000   1.000000
    9       -6.189445     -6.189445   1.000000   1.000000
   10       -5.776314     -5.776314   1.000000   1.000000
   11       -4.825224     -4.825224   1.000000   1.000000
   12       -3.971675     -3.971675   1.000000   1.000000
   13       -1.375079     -1.375080   0.000000   0.000000
   14       -1.334744     -1.334744   0.000000   0.000000
   15       -1.114798     -1.114798   0.000000   0.000000
   16       -0.655332     -0.655332   0.000000   0.000000
   17        1.962621      1.962262   0.000000   0.000000
   18        2.057949      2.057481   0.000000   0.000000
   19        2.368700      2.369342   0.000000   0.000000
   20        2.607006      2.607406   0.000000   0.000000
   21        2.884329      2.883927   0.000000   0.000000
   22        3.350307      3.349991   0.000000   0.000000
   23        3.528602      3.528585   0.000000   0.000000
   24        3.899036      3.898873   0.000000   0.000000
 
  0.8016870E-01  0.8016870E-01  0.0000000E+00  0.4166667E-02
    1      -38.860865    -38.860865   1.000000   1.000000
    2      -38.751242    -38.751242   1.000000   1.000000
    3      -38.703626    -38.703626   1.000000   1.000000
    4      -17.597751    -17.597751   1.000000   1.000000
    5      -16.453787    -16.453787   1.000000   1.000000
    6       -9.095372     -9.095372   1.000000   1.000000
    7       -6.992603     -6.992603   1.000000   1.000000
    8       -6.445681     -6.445681   1.000000   1.000000
    9       -6.163141     -6.163141   1.000000   1.000000
   10       -5.827006     -5.827006   1.000000   1.000000
   11       -4.809395     -4.809395   1.000000   1.000000
   12       -3.994471     -3.994471   1.000000   1.000000
   13       -1.412579     -1.412579   0.000000   0.000000
   14       -1.346942     -1.346942   0.000000   0.000000
   15       -1.140443     -1.140443   0.000000   0.000000
   16       -0.612141     -0.612141   0.000000   0.000000
   17        2.002228      2.001867   0.000000   0.000000
   18        2.095447      2.094980   0.000000   0.000000
   19        2.407621      2.408264   0.000000   0.000000
   20        2.645372      2.645770   0.000000   0.000000
   21        2.924786      2.924387   0.000000   0.000000
   22        3.388113      3.387797   0.000000   0.000000
   23        3.608526      3.608490   0.000000   0.000000
   24        3.956022      3.955875   0.000000   0.000000
 
  0.8438810E-01  0.8438810E-01  0.0000000E+00  0.4166667E-02
    1      -38.859606    -38.859606   1.000000   1.000000
    2      -38.757441    -38.757441   1.000000   1.000000
    3      -38.705334    -38.705334   1.000000   1.000000
    4      -17.569365    -17.569365   1.000000   1.000000
    5      -16.442139    -16.442139   1.000000   1.000000
    6       -9.066873     -9.066873   1.000000   1.000000
    7       -7.040391     -7.040391   1.000000   1.000000
    8       -6.495193     -6.495193   1.000000   1.000000
    9       -6.136049     -6.136049   1.000000   1.000000
   10       -5.880108     -5.880108   1.000000   1.000000
   11       -4.795450     -4.795450   1.000000   1.000000