<?xml version="1.0" encoding="ISO-8859-1"?>
<modeling>
 <generator>
  <i name="program" type="string">vasp </i>
  <i name="version" type="string">5.4.1  </i>
  <i name="subversion" type="string">05Feb16 (build Feb 01 2017 11:31:40) complex                          parallel </i>
  <i name="platform" type="string">IFC91_ompi </i>
  <i name="date" type="string">2025 11 04 </i>
  <i name="time" type="string">15:30:44 </i>
 </generator>
 <incar>
  <i type="string" name="SYSTEM"> MoSSe-WSSe pre-relaxation (atoms only)</i>
  <i type="string" name="PREC">accurate</i>
  <i type="string" name="ALGO"> Normal</i>
  <i type="logical" name="ADDGRID"> T  </i>
  <i type="int" name="ISPIN">     2</i>
  <i type="int" name="MAXMIX">    40</i>
  <i name="AMIX">      0.20000000</i>
  <i name="BMIX">      0.00010000</i>
  <i name="AMIX_MAG">      0.80000000</i>
  <i name="BMIX_MAG">      0.00010000</i>
  <i type="int" name="NELM">   100</i>
  <i type="int" name="NELMDL">    -5</i>
  <i type="int" name="NELMIN">     4</i>
  <i type="int" name="IBRION">     2</i>
  <i name="EDIFF">      0.00001000</i>
  <i name="EDIFFG">     -0.03000000</i>
  <i type="int" name="NSW">   150</i>
  <i type="int" name="ISIF">     2</i>
  <i name="ENCUT">    520.00000000</i>
  <i name="POTIM">      0.30000000</i>
  <v name="MAGMOM">      2.00000000      2.00000000      2.00000000      2.00000000      2.00000000      2.00000000      2.00000000      2.00000000      2.00000000      2.00000000      2.00000000      2.00000000      2.00000000      2.00000000      2.00000000      2.00000000      2.00000000      2.00000000      2.00000000      2.00000000
      2.00000000      2.00000000      2.00000000      2.00000000      2.00000000      2.00000000      2.00000000      2.00000000      2.00000000      2.00000000      2.00000000      2.00000000      2.00000000      2.00000000      2.00000000      2.00000000      2.00000000      2.00000000      2.00000000      2.00000000
      2.00000000      2.00000000      2.00000000      2.00000000      2.00000000      2.00000000      2.00000000      2.00000000      2.00000000      2.00000000      0.00000000      0.00000000      0.00000000      0.00000000      0.00000000      0.00000000      0.00000000      0.00000000      0.00000000      0.00000000
      0.00000000      0.00000000      0.00000000      0.00000000      0.00000000      0.00000000      0.00000000      0.00000000      0.00000000      0.00000000      0.00000000      0.00000000      0.00000000      0.00000000      0.00000000      0.00000000      0.00000000      0.00000000      0.00000000      0.00000000
      0.00000000      0.00000000      0.00000000      0.00000000      0.00000000      0.00000000      0.00000000      0.00000000      0.00000000      0.00000000      0.00000000      0.00000000      0.00000000      0.00000000      0.00000000      0.00000000      0.00000000      0.00000000      0.00000000      0.00000000
      0.00000000      0.00000000      0.00000000      0.00000000      0.00000000      0.00000000      0.00000000      0.00000000      0.00000000      0.00000000      0.00000000      0.00000000      0.00000000      0.00000000      0.00000000      0.00000000      0.00000000      0.00000000      0.00000000      0.00000000
      0.00000000      0.00000000      0.00000000      0.00000000      0.00000000      0.00000000      0.00000000      0.00000000      0.00000000      0.00000000      0.00000000      0.00000000      0.00000000      0.00000000      0.00000000      0.00000000      0.00000000      0.00000000      0.00000000      0.00000000
      0.00000000      0.00000000      0.00000000      0.00000000      0.00000000      0.00000000      0.00000000      0.00000000      0.00000000      0.00000000</v>
  <i type="logical" name="LREAL"> F  </i>
  <i type="int" name="ISMEAR">     0</i>
  <i name="SIGMA">      0.05000000</i>
  <i name="PSTRESS">      0.00000000</i>
  <i type="int" name="LMAXMIX">     4</i>
  <i type="logical" name="LASPH"> T  </i>
  <v type="int" name="KPOINT_BSE">    -1     0     0     0</v>
  <i type="int" name="NELM">   100</i>
  <i type="logical" name="LASPH"> T  </i>
 </incar>
 <kpoints>
  <generation param="Gamma">
   <v type="int" name="divisions">       3        3        1 </v>
   <v name="usershift">      0.00000000       0.00000000       0.00000000 </v>
   <v name="genvec1">      0.33333333       0.00000000       0.00000000 </v>
   <v name="genvec2">      0.00000000       0.33333333       0.00000000 </v>
   <v name="genvec3">      0.00000000       0.00000000       1.00000000 </v>
   <v name="shift">      0.00000000       0.00000000       0.00000000 </v>
  </generation>
  <varray name="kpointlist" >
   <v>       0.00000000       0.00000000       0.00000000 </v>
   <v>       0.33333333      -0.00000000       0.00000000 </v>
   <v>       0.33333333       0.33333333       0.00000000 </v>
  </varray>
  <varray name="weights" >
   <v>       0.11111111 </v>
   <v>       0.66666667 </v>
   <v>       0.22222222 </v>
  </varray>
 </kpoints>
 <parameters>
  <separator name="general" >
   <i type="string" name="SYSTEM">MoSSe-WSSe pre-relaxation (atoms only)</i>
   <i type="logical" name="LCOMPAT"> F  </i>
  </separator>
  <separator name="electronic" >
   <i type="string" name="PREC">accura</i>
   <i name="ENMAX">    520.00000000</i>
   <i name="ENAUG">    446.84200000</i>
   <i name="EDIFF">      0.00001000</i>
   <i type="int" name="IALGO">    38</i>
   <i type="int" name="IWAVPR">    11</i>
   <i type="int" name="NBANDS">   816</i>
   <i name="NELECT">   1200.00000000</i>
   <i type="int" name="TURBO">     0</i>
   <i type="int" name="IRESTART">     0</i>
   <i type="int" name="NREBOOT">     0</i>
   <i type="int" name="NMIN">     0</i>
   <i name="EREF">      0.00000000</i>
   <separator name="electronic smearing" >
    <i type="int" name="ISMEAR">     0</i>
    <i name="SIGMA">      0.05000000</i>
    <i name="KSPACING">      0.50000000</i>
    <i type="logical" name="KGAMMA"> T  </i>
   </separator>
   <separator name="electronic projectors" >
    <i type="logical" name="LREAL"> F  </i>
    <v name="ROPT">      0.00000000      0.00000000      0.00000000      0.00000000</v>
    <i type="int" name="LMAXPAW">  -100</i>
    <i type="int" name="LMAXMIX">     4</i>
    <i type="logical" name="NLSPLINE"> F  </i>
   </separator>
   <separator name="electronic startup" >
    <i type="int" name="ISTART">     0</i>
    <i type="int" name="ICHARG">     2</i>
    <i type="int" name="INIWAV">     1</i>
   </separator>
   <separator name="electronic spin" >
    <i type="int" name="ISPIN">     2</i>
    <i type="logical" name="LNONCOLLINEAR"> F  </i>
    <v name="MAGMOM">      2.00000000      2.00000000      2.00000000      2.00000000      2.00000000      2.00000000      2.00000000      2.00000000      2.00000000      2.00000000      2.00000000      2.00000000      2.00000000      2.00000000      2.00000000      2.00000000      2.00000000      2.00000000      2.00000000      2.00000000
      2.00000000      2.00000000      2.00000000      2.00000000      2.00000000      2.00000000      2.00000000      2.00000000      2.00000000      2.00000000      2.00000000      2.00000000      2.00000000      2.00000000      2.00000000      2.00000000      2.00000000      2.00000000      2.00000000      2.00000000
      2.00000000      2.00000000      2.00000000      2.00000000      2.00000000      2.00000000      2.00000000      2.00000000      2.00000000      2.00000000      0.00000000      0.00000000      0.00000000      0.00000000      0.00000000      0.00000000      0.00000000      0.00000000      0.00000000      0.00000000
      0.00000000      0.00000000      0.00000000      0.00000000      0.00000000      0.00000000      0.00000000      0.00000000      0.00000000      0.00000000      0.00000000      0.00000000      0.00000000      0.00000000      0.00000000      0.00000000      0.00000000      0.00000000      0.00000000      0.00000000
      0.00000000      0.00000000      0.00000000      0.00000000      0.00000000      0.00000000      0.00000000      0.00000000      0.00000000      0.00000000      0.00000000      0.00000000      0.00000000      0.00000000      0.00000000      0.00000000      0.00000000      0.00000000      0.00000000      0.00000000
      0.00000000      0.00000000      0.00000000      0.00000000      0.00000000      0.00000000      0.00000000      0.00000000      0.00000000      0.00000000      0.00000000      0.00000000      0.00000000      0.00000000      0.00000000      0.00000000      0.00000000      0.00000000      0.00000000      0.00000000
      0.00000000      0.00000000      0.00000000      0.00000000      0.00000000      0.00000000      0.00000000      0.00000000      0.00000000      0.00000000      0.00000000      0.00000000      0.00000000      0.00000000      0.00000000      0.00000000      0.00000000      0.00000000      0.00000000      0.00000000
      0.00000000      0.00000000      0.00000000      0.00000000      0.00000000      0.00000000      0.00000000      0.00000000      0.00000000      0.00000000</v>
    <i name="NUPDOWN">     -1.00000000</i>
    <i type="logical" name="LSORBIT"> F  </i>
    <v name="SAXIS">      0.00000000      0.00000000      1.00000000</v>
    <i type="logical" name="LSPIRAL"> F  </i>
    <v name="QSPIRAL">      0.00000000      0.00000000      0.00000000</v>
    <i type="logical" name="LZEROZ"> F  </i>
   </separator>
   <separator name="electronic exchange-correlation" >
    <i type="logical" name="LASPH"> T  </i>
    <i type="logical" name="LMETAGGA"> F  </i>
   </separator>
   <separator name="electronic convergence" >
    <i type="int" name="NELM">   100</i>
    <i type="int" name="NELMDL">    -5</i>
    <i type="int" name="NELMIN">     4</i>
    <i name="ENINI">    520.00000000</i>
    <separator name="electronic convergence detail" >
     <i type="logical" name="LDIAG"> T  </i>
     <i type="logical" name="LSUBROT"> F  </i>
     <i name="WEIMIN">      0.00100000</i>
     <i name="EBREAK">      0.00000000</i>
     <i name="DEPER">      0.30000000</i>
     <i type="int" name="NRMM">     4</i>
     <i name="TIME">      0.40000000</i>
    </separator>
   </separator>
   <separator name="electronic mixer" >
    <i name="AMIX">      0.20000000</i>
    <i name="BMIX">      0.00010000</i>
    <i name="AMIN">      0.10000000</i>
    <i name="AMIX_MAG">      0.80000000</i>
    <i name="BMIX_MAG">      0.00010000</i>
    <separator name="electronic mixer details" >
     <i type="int" name="IMIX">     4</i>
     <i type="logical" name="MIXFIRST"> F  </i>
     <i type="int" name="MAXMIX">    40</i>
     <i name="WC">    100.00000000</i>
     <i type="int" name="INIMIX">     1</i>
     <i type="int" name="MIXPRE">     1</i>
     <i type="int" name="MREMOVE">     5</i>
    </separator>
   </separator>
   <separator name="electronic dipolcorrection" >
    <i type="logical" name="LDIPOL"> F  </i>
    <i type="logical" name="LMONO"> F  </i>
    <i type="int" name="IDIPOL">     0</i>
    <i name="EPSILON">      1.00000000</i>
    <v name="DIPOL">   -100.00000000   -100.00000000   -100.00000000</v>
    <i name="EFIELD">      0.00000000</i>
   </separator>
  </separator>
  <separator name="grids" >
   <i type="int" name="NGX">   120</i>
   <i type="int" name="NGY">   120</i>
   <i type="int" name="NGZ">   210</i>
   <i type="int" name="NGXF">   240</i>
   <i type="int" name="NGYF">   240</i>
   <i type="int" name="NGZF">   420</i>
   <i type="logical" name="ADDGRID"> T  </i>
  </separator>
  <separator name="ionic" >
   <i type="int" name="NSW">   150</i>
   <i type="int" name="IBRION">     2</i>
   <i type="int" name="ISIF">     2</i>
   <i name="PSTRESS">      0.00000000</i>
   <i name="EDIFFG">     -0.03000000</i>
   <i type="int" name="NFREE">     1</i>
   <i name="POTIM">      0.30000000</i>
   <i name="SMASS">     -3.00000000</i>
   <i name="SCALEE">      1.00000000</i>
  </separator>
  <separator name="ionic md" >
   <i name="TEBEG">      0.00010000</i>
   <i name="TEEND">      0.00010000</i>
   <i type="int" name="NBLOCK">     1</i>
   <i type="int" name="KBLOCK">   150</i>
   <i type="int" name="NPACO">   256</i>
   <i name="APACO">     16.00000000</i>
  </separator>
  <separator name="symmetry" >
   <i type="int" name="ISYM">     2</i>
   <i name="SYMPREC">      0.00001000</i>
  </separator>
  <separator name="dos" >
   <i type="logical" name="LORBIT"> F  </i>
   <v name="RWIGS">     -1.00000000     -1.00000000     -1.00000000     -1.00000000</v>
   <i type="int" name="NEDOS">   301</i>
   <i name="EMIN">     10.00000000</i>
   <i name="EMAX">    -10.00000000</i>
   <i name="EFERMI">      0.00000000</i>
  </separator>
  <separator name="writing" >
   <i type="int" name="NWRITE">     2</i>
   <i type="logical" name="LWAVE"> T  </i>
   <i type="logical" name="LCHARG"> T  </i>
   <i type="logical" name="LPARD"> F  </i>
   <i type="logical" name="LVTOT"> F  </i>
   <i type="logical" name="LVHAR"> F  </i>
   <i type="logical" name="LELF"> F  </i>
   <i type="logical" name="LOPTICS"> F  </i>
   <v name="STM">      0.00000000      0.00000000      0.00000000      0.00000000      0.00000000      0.00000000      0.00000000</v>
  </separator>
  <separator name="performance" >
   <i type="int" name="NPAR">    48</i>
   <i type="int" name="NSIM">     4</i>
   <i type="int" name="NBLK">    -1</i>
   <i type="logical" name="LPLANE"> T  </i>
   <i type="logical" name="LSCALAPACK"> T  </i>
   <i type="logical" name="LSCAAWARE"> F  </i>
   <i type="logical" name="LSCALU"> F  </i>
   <i type="logical" name="LASYNC"> F  </i>
   <i type="logical" name="LORBITALREAL"> F  </i>
  </separator>
  <separator name="miscellaneous" >
   <i type="int" name="IDIOT">     3</i>
   <i type="logical" name="LMUSIC"> F  </i>
   <v name="POMASS">     95.94000000    183.85000000     32.06600000     78.96000000</v>
   <v name="DARWINR">      0.00000000      0.00000000      0.00000000      0.00000000</v>
   <v name="DARWINV">      1.00000000      1.00000000      1.00000000      1.00000000</v>
   <i type="logical" name="LCORR"> T  </i>
  </separator>
  <i type="logical" name="GGA_COMPAT"> T  </i>
  <i type="logical" name="LBERRY"> F  </i>
  <i type="int" name="ICORELEVEL">     0</i>
  <i type="logical" name="LDAU"> F  </i>
  <i type="int" name="I_CONSTRAINED_M">     0</i>
  <separator name="electronic exchange-correlation" >
   <i type="string" name="GGA">--</i>
   <i type="int" name="VOSKOWN">     0</i>
   <i type="logical" name="LHFCALC"> F  </i>
   <i type="string" name="PRECFOCK"></i>
   <i type="logical" name="LSYMGRAD"> F  </i>
   <i type="logical" name="LHFONE"> F  </i>
   <i type="logical" name="LRHFCALC"> F  </i>
   <i type="logical" name="LTHOMAS"> F  </i>
   <i type="logical" name="LMODELHF"> F  </i>
   <i name="ENCUT4O">     -1.00000000</i>
   <i type="int" name="EXXOEP">     0</i>
   <i type="int" name="FOURORBIT">     0</i>
   <i name="AEXX">      0.00000000</i>
   <i name="HFALPHA">      0.00000000</i>
   <i name="MCALPHA">      0.00000000</i>
   <i name="ALDAX">      1.00000000</i>
   <i name="AGGAX">      1.00000000</i>
   <i name="ALDAC">      1.00000000</i>
   <i name="AGGAC">      1.00000000</i>
   <i type="int" name="NKREDX">     1</i>
   <i type="int" name="NKREDY">     1</i>
   <i type="int" name="NKREDZ">     1</i>
   <i type="logical" name="SHIFTRED"> F  </i>
   <i type="logical" name="ODDONLY"> F  </i>
   <i type="logical" name="EVENONLY"> F  </i>
   <i type="int" name="LMAXFOCK">     0</i>
   <i type="int" name="NMAXFOCKAE">     0</i>
   <i type="logical" name="LFOCKAEDFT"> F  </i>
   <i name="HFSCREEN">      0.00000000</i>
   <i name="HFSCREENC">      0.00000000</i>
   <i type="int" name="NBANDSGWLOW">     0</i>
  </separator>
  <separator name="vdW DFT" >
   <i type="logical" name="LUSE_VDW"> F  </i>
   <i name="Zab_VDW">     -0.84910000</i>
   <i name="PARAM1">      0.12340000</i>
   <i name="PARAM2">      1.00000000</i>
   <i name="PARAM3">      0.00000000</i>
  </separator>
  <separator name="model GW" >
   <i type="int" name="MODEL_GW">     0</i>
   <i name="MODEL_EPS0">     24.90084089</i>
   <i name="MODEL_ALPHA">      1.00000000</i>
  </separator>
  <separator name="linear response parameters" >
   <i type="logical" name="LEPSILON"> F  </i>
   <i type="logical" name="LRPA"> F  </i>
   <i type="logical" name="LNABLA"> F  </i>
   <i type="logical" name="LVEL"> F  </i>
   <i type="int" name="KINTER">     0</i>
   <i name="CSHIFT">      0.10000000</i>
   <i name="OMEGAMAX">     -1.00000000</i>
   <i name="DEG_THRESHOLD">      0.00200000</i>
  </separator>
  <separator name="orbital magnetization" >
   <i type="logical" name="NUCIND"> F  </i>
   <v name="MAGPOS">      0.00000000      0.00000000      0.00000000</v>
   <i type="logical" name="LNICSALL"> T  </i>
   <i type="logical" name="ORBITALMAG"> F  </i>
   <i type="logical" name="LMAGBLOCH"> F  </i>
   <i type="logical" name="LCHIMAG"> F  </i>
   <i type="logical" name="LGAUGE"> T  </i>
   <i type="int" name="MAGATOM">     0</i>
   <v name="MAGDIPOL">      0.00000000      0.00000000      0.00000000</v>
   <v name="AVECCONST">      0.00000000      0.00000000      0.00000000</v>
  </separator>
  <separator name="response functions" >
   <i type="logical" name="LADDER"> F  </i>
   <i type="logical" name="LFXC"> F  </i>
   <i type="logical" name="LHARTREE"> T  </i>
   <i type="int" name="IBSE">     0</i>
   <v type="int" name="KPOINT">    -1     0     0     0</v>
   <i type="logical" name="LTCTE"> F  </i>
   <i type="logical" name="LTETE"> F  </i>
   <i type="logical" name="LTRIPLET"> F  </i>
   <i type="logical" name="LFXCEPS"> F  </i>
   <i type="logical" name="LFXHEG"> F  </i>
   <i type="int" name="NATURALO">     0</i>
   <i type="logical" name="L2ORDER"> F  </i>
   <i type="logical" name="LUSEW"> F  </i>
   <i name="ENCUTGW">     -2.00000000</i>
   <i name="ENCUTGWSOFT">     -2.00000000</i>
   <i name="ENCUTLF">     -1.00000000</i>
   <i type="int" name="LMAXMP2">    -1</i>
   <i name="SCISSOR">      0.00000000</i>
   <i type="int" name="NOMEGA">     0</i>
   <i type="int" name="NOMEGAR">     0</i>
   <i type="int" name="NBANDSGW">    -1</i>
   <i type="int" name="NBANDSO">    -1</i>
   <i type="int" name="NBANDSV">    -1</i>
   <i type="int" name="NELM">   100</i>
   <i type="int" name="NELMHF">     1</i>
   <i type="int" name="DIM">     3</i>
   <i type="int" name="ANTIRES">     0</i>
   <i name="OMEGAMAX">    -30.00000000</i>
   <i name="OMEGAMIN">    -30.00000000</i>
   <i name="OMEGATL">   -200.00000000</i>
   <i type="int" name="OMEGAGRID">     0</i>
   <i name="CSHIFT">     -0.10000000</i>
   <i type="logical" name="SELFENERGY"> F  </i>
   <i type="logical" name="LSPECTRAL"> F  </i>
   <i type="logical" name="LSPECTRALGW"> F  </i>
   <i type="logical" name="LSINGLES"> F  </i>
   <i type="logical" name="LFERMIGW"> F  </i>
   <i type="logical" name="ODDONLYGW"> F  </i>
   <i type="logical" name="EVENONLYGW"> F  </i>
   <i type="int" name="NKREDLFX">     1</i>
   <i type="int" name="NKREDLFY">     1</i>
   <i type="int" name="NKREDLFZ">     1</i>
   <i type="int" name="MAXMEM">  1800</i>
   <i type="int" name="TELESCOPE">     0</i>
   <i type="int" name="TAUPAR">     1</i>
   <i type="int" name="OMEGAPAR">    -1</i>
   <i name="LAMBDA">      1.00000000</i>
  </separator>
  <separator name="External order field" >
   <i name="OFIELD_KAPPA">      0.00000000</i>
   <v name="OFIELD_K">      0.00000000      0.00000000      0.00000000</v>
   <i name="OFIELD_Q6_NEAR">      0.00000000</i>
   <i name="OFIELD_Q6_FAR">      0.00000000</i>
   <i name="OFIELD_A">      0.00000000</i>
  </separator>
  <separator name="solvation model" >
   <i type="logical" name="LSOL"> F  </i>
  </separator>
 </parameters>
 <atominfo>
  <atoms>     150 </atoms>
  <types>       4 </types>
  <array name="atoms" >
   <dimension dim="1">ion</dimension>
   <field type="string">element</field>
   <field type="int">atomtype</field>
   <set>
    <rc><c>Mo</c><c>   1</c></rc>
    <rc><c>Mo</c><c>   1</c></rc>
    <rc><c>Mo</c><c>   1</c></rc>
    <rc><c>Mo</c><c>   1</c></rc>
    <rc><c>Mo</c><c>   1</c></rc>
    <rc><c>Mo</c><c>   1</c></rc>
    <rc><c>Mo</c><c>   1</c></rc>
    <rc><c>Mo</c><c>   1</c></rc>
    <rc><c>Mo</c><c>   1</c></rc>
    <rc><c>Mo</c><c>   1</c></rc>
    <rc><c>Mo</c><c>   1</c></rc>
    <rc><c>Mo</c><c>   1</c></rc>
    <rc><c>Mo</c><c>   1</c></rc>
    <rc><c>Mo</c><c>   1</c></rc>
    <rc><c>Mo</c><c>   1</c></rc>
    <rc><c>Mo</c><c>   1</c></rc>
    <rc><c>Mo</c><c>   1</c></rc>
    <rc><c>Mo</c><c>   1</c></rc>
    <rc><c>Mo</c><c>   1</c></rc>
    <rc><c>Mo</c><c>   1</c></rc>
    <rc><c>Mo</c><c>   1</c></rc>
    <rc><c>Mo</c><c>   1</c></rc>
    <rc><c>Mo</c><c>   1</c></rc>
    <rc><c>Mo</c><c>   1</c></rc>
    <rc><c>Mo</c><c>   1</c></rc>
    <rc><c>W </c><c>   2</c></rc>
    <rc><c>W </c><c>   2</c></rc>
    <rc><c>W </c><c>   2</c></rc>
    <rc><c>W </c><c>   2</c></rc>
    <rc><c>W </c><c>   2</c></rc>
    <rc><c>W </c><c>   2</c></rc>
    <rc><c>W </c><c>   2</c></rc>
    <rc><c>W </c><c>   2</c></rc>
    <rc><c>W </c><c>   2</c></rc>
    <rc><c>W </c><c>   2</c></rc>
    <rc><c>W </c><c>   2</c></rc>
    <rc><c>W </c><c>   2</c></rc>
    <rc><c>W </c><c>   2</c></rc>
    <rc><c>W </c><c>   2</c></rc>
    <rc><c>W </c><c>   2</c></rc>
    <rc><c>W </c><c>   2</c></rc>
    <rc><c>W </c><c>   2</c></rc>
    <rc><c>W </c><c>   2</c></rc>
    <rc><c>W </c><c>   2</c></rc>
    <rc><c>W </c><c>   2</c></rc>
    <rc><c>W </c><c>   2</c></rc>
    <rc><c>W </c><c>   2</c></rc>
    <rc><c>W </c><c>   2</c></rc>
    <rc><c>W </c><c>   2</c></rc>
    <rc><c>W </c><c>   2</c></rc>
    <rc><c>S </c><c>   3</c></rc>
    <rc><c>S </c><c>   3</c></rc>
    <rc><c>S </c><c>   3</c></rc>
    <rc><c>S </c><c>   3</c></rc>
    <rc><c>S </c><c>   3</c></rc>
    <rc><c>S </c><c>   3</c></rc>
    <rc><c>S </c><c>   3</c></rc>
    <rc><c>S </c><c>   3</c></rc>
    <rc><c>S </c><c>   3</c></rc>
    <rc><c>S </c><c>   3</c></rc>
    <rc><c>S </c><c>   3</c></rc>
    <rc><c>S </c><c>   3</c></rc>
    <rc><c>S </c><c>   3</c></rc>
    <rc><c>S </c><c>   3</c></rc>
    <rc><c>S </c><c>   3</c></rc>
    <rc><c>S </c><c>   3</c></rc>
    <rc><c>S </c><c>   3</c></rc>
    <rc><c>S </c><c>   3</c></rc>
    <rc><c>S </c><c>   3</c></rc>
    <rc><c>S </c><c>   3</c></rc>
    <rc><c>S </c><c>   3</c></rc>
    <rc><c>S </c><c>   3</c></rc>
    <rc><c>S </c><c>   3</c></rc>
    <rc><c>S </c><c>   3</c></rc>
    <rc><c>S </c><c>   3</c></rc>
    <rc><c>S </c><c>   3</c></rc>
    <rc><c>S </c><c>   3</c></rc>
    <rc><c>S </c><c>   3</c></rc>
    <rc><c>S </c><c>   3</c></rc>
    <rc><c>S </c><c>   3</c></rc>
    <rc><c>S </c><c>   3</c></rc>
    <rc><c>S </c><c>   3</c></rc>
    <rc><c>S </c><c>   3</c></rc>
    <rc><c>S </c><c>   3</c></rc>
    <rc><c>S </c><c>   3</c></rc>
    <rc><c>S </c><c>   3</c></rc>
    <rc><c>S </c><c>   3</c></rc>
    <rc><c>S </c><c>   3</c></rc>
    <rc><c>S </c><c>   3</c></rc>
    <rc><c>S </c><c>   3</c></rc>
    <rc><c>S </c><c>   3</c></rc>
    <rc><c>S </c><c>   3</c></rc>
    <rc><c>S </c><c>   3</c></rc>
    <rc><c>S </c><c>   3</c></rc>
    <rc><c>S </c><c>   3</c></rc>
    <rc><c>S </c><c>   3</c></rc>
    <rc><c>S </c><c>   3</c></rc>
    <rc><c>S </c><c>   3</c></rc>
    <rc><c>S </c><c>   3</c></rc>
    <rc><c>S </c><c>   3</c></rc>
    <rc><c>Se</c><c>   4</c></rc>
    <rc><c>Se</c><c>   4</c></rc>
    <rc><c>Se</c><c>   4</c></rc>
    <rc><c>Se</c><c>   4</c></rc>
    <rc><c>Se</c><c>   4</c></rc>
    <rc><c>Se</c><c>   4</c></rc>
    <rc><c>Se</c><c>   4</c></rc>
    <rc><c>Se</c><c>   4</c></rc>
    <rc><c>Se</c><c>   4</c></rc>
    <rc><c>Se</c><c>   4</c></rc>
    <rc><c>Se</c><c>   4</c></rc>
    <rc><c>Se</c><c>   4</c></rc>
    <rc><c>Se</c><c>   4</c></rc>
    <rc><c>Se</c><c>   4</c></rc>
    <rc><c>Se</c><c>   4</c></rc>
    <rc><c>Se</c><c>   4</c></rc>
    <rc><c>Se</c><c>   4</c></rc>
    <rc><c>Se</c><c>   4</c></rc>
    <rc><c>Se</c><c>   4</c></rc>
    <rc><c>Se</c><c>   4</c></rc>
    <rc><c>Se</c><c>   4</c></rc>
    <rc><c>Se</c><c>   4</c></rc>
    <rc><c>Se</c><c>   4</c></rc>
    <rc><c>Se</c><c>   4</c></rc>
    <rc><c>Se</c><c>   4</c></rc>
    <rc><c>Se</c><c>   4</c></rc>
    <rc><c>Se</c><c>   4</c></rc>
    <rc><c>Se</c><c>   4</c></rc>
    <rc><c>Se</c><c>   4</c></rc>
    <rc><c>Se</c><c>   4</c></rc>
    <rc><c>Se</c><c>   4</c></rc>
    <rc><c>Se</c><c>   4</c></rc>
    <rc><c>Se</c><c>   4</c></rc>
    <rc><c>Se</c><c>   4</c></rc>
    <rc><c>Se</c><c>   4</c></rc>
    <rc><c>Se</c><c>   4</c></rc>
    <rc><c>Se</c><c>   4</c></rc>
    <rc><c>Se</c><c>   4</c></rc>
    <rc><c>Se</c><c>   4</c></rc>
    <rc><c>Se</c><c>   4</c></rc>
    <rc><c>Se</c><c>   4</c></rc>
    <rc><c>Se</c><c>   4</c></rc>
    <rc><c>Se</c><c>   4</c></rc>
    <rc><c>Se</c><c>   4</c></rc>
    <rc><c>Se</c><c>   4</c></rc>
    <rc><c>Se</c><c>   4</c></rc>
    <rc><c>Se</c><c>   4</c></rc>
    <rc><c>Se</c><c>   4</c></rc>
    <rc><c>Se</c><c>   4</c></rc>
    <rc><c>Se</c><c>   4</c></rc>
   </set>
  </array>
  <array name="atomtypes" >
   <dimension dim="1">type</dimension>
   <field type="int">atomspertype</field>
   <field type="string">element</field>
   <field>mass</field>
   <field>valence</field>
   <field type="string">pseudopotential</field>
   <set>
    <rc><c>  25</c><c>Mo</c><c>     95.94000000</c><c>     12.00000000</c><c> PAW_PBE Mo_pv 08Apr2002                </c></rc>
    <rc><c>  25</c><c>W </c><c>    183.85000000</c><c>     12.00000000</c><c> PAW_PBE W_pv 06Sep2000                 </c></rc>
    <rc><c>  50</c><c>S </c><c>     32.06600000</c><c>      6.00000000</c><c>  PAW_PBE S 17Jan2003                   </c></rc>
    <rc><c>  50</c><c>Se</c><c>     78.96000000</c><c>      6.00000000</c><c> PAW_PBE Se 06Sep2000                   </c></rc>
   </set>
  </array>
 </atominfo>
 <structure name="initialpos" >
  <crystal>
   <varray name="basis" >
    <v>      15.95157981       0.00000000       0.00000000 </v>
    <v>      -7.97578990      13.81447335       0.00000000 </v>
    <v>       0.00000000       0.00000000      28.24983972 </v>
   </varray>
   <i name="volume">   6225.21022374 </i>
   <varray name="rec_basis" >
    <v>       0.06268972       0.03619392       0.00000000 </v>
    <v>       0.00000000       0.07238785       0.00000000 </v>
    <v>       0.00000000       0.00000000       0.03539843 </v>
   </varray>
  </crystal>
  <varray name="positions" >
   <v>       0.13333340       0.06666660       0.05539445 </v>
   <v>       0.13333340       0.26666660       0.05539445 </v>
   <v>       0.13333340       0.46666660       0.05539445 </v>
   <v>       0.13333340       0.66666660       0.05539445 </v>
   <v>       0.13333340       0.86666660       0.05539445 </v>
   <v>       0.33333340       0.06666660       0.05539445 </v>
   <v>       0.33333340       0.26666660       0.05539445 </v>
   <v>       0.33333340       0.46666660       0.05539445 </v>
   <v>       0.33333340       0.66666660       0.05539445 </v>
   <v>       0.33333340       0.86666660       0.05539445 </v>
   <v>       0.53333340       0.06666660       0.05539445 </v>
   <v>       0.53333340       0.26666660       0.05539445 </v>
   <v>       0.53333340       0.46666660       0.05539445 </v>
   <v>       0.53333340       0.66666660       0.05539445 </v>
   <v>       0.53333340       0.86666660       0.05539445 </v>
   <v>       0.73333340       0.06666660       0.05539445 </v>
   <v>       0.73333340       0.26666660       0.05539445 </v>
   <v>       0.73333340       0.46666660       0.05539445 </v>
   <v>       0.73333340       0.66666660       0.05539445 </v>
   <v>       0.73333340       0.86666660       0.05539445 </v>
   <v>       0.93333340       0.06666660       0.05539445 </v>
   <v>       0.93333340       0.26666660       0.05539445 </v>
   <v>       0.93333340       0.46666660       0.05539445 </v>
   <v>       0.93333340       0.66666660       0.05539445 </v>
   <v>       0.93333340       0.86666660       0.05539445 </v>
   <v>       0.06666660       0.13333340       0.41026088 </v>
   <v>       0.06666660       0.33333340       0.41026088 </v>
   <v>       0.06666660       0.53333340       0.41026088 </v>
   <v>       0.06666660       0.73333340       0.41026088 </v>
   <v>       0.06666660       0.93333340       0.41026088 </v>
   <v>       0.26666660       0.13333340       0.41026088 </v>
   <v>       0.26666660       0.33333340       0.41026088 </v>
   <v>       0.26666660       0.53333340       0.41026088 </v>
   <v>       0.26666660       0.73333340       0.41026088 </v>
   <v>       0.26666660       0.93333340       0.41026088 </v>
   <v>       0.46666660       0.13333340       0.41026088 </v>
   <v>       0.46666660       0.33333340       0.41026088 </v>
   <v>       0.46666660       0.53333340       0.41026088 </v>
   <v>       0.46666660       0.73333340       0.41026088 </v>
   <v>       0.46666660       0.93333340       0.41026088 </v>
   <v>       0.66666660       0.13333340       0.41026088 </v>
   <v>       0.66666660       0.33333340       0.41026088 </v>
   <v>       0.66666660       0.53333340       0.41026088 </v>
   <v>       0.66666660       0.73333340       0.41026088 </v>
   <v>       0.66666660       0.93333340       0.41026088 </v>
   <v>       0.86666660       0.13333340       0.41026088 </v>
   <v>       0.86666660       0.33333340       0.41026088 </v>
   <v>       0.86666660       0.53333340       0.41026088 </v>
   <v>       0.86666660       0.73333340       0.41026088 </v>
   <v>       0.86666660       0.93333340       0.41026088 </v>
   <v>       0.06666660       0.13333340       0.00000000 </v>
   <v>       0.06666660       0.33333340       0.00000000 </v>
   <v>       0.06666660       0.53333340       0.00000000 </v>
   <v>       0.06666660       0.73333340       0.00000000 </v>
   <v>       0.06666660       0.93333340       0.00000000 </v>
   <v>       0.26666660       0.13333340       0.00000000 </v>
   <v>       0.26666660       0.33333340       0.00000000 </v>
   <v>       0.26666660       0.53333340       0.00000000 </v>
   <v>       0.26666660       0.73333340       0.00000000 </v>
   <v>       0.26666660       0.93333340       0.00000000 </v>
   <v>       0.46666660       0.13333340       0.00000000 </v>
   <v>       0.46666660       0.33333340       0.00000000 </v>
   <v>       0.46666660       0.53333340       0.00000000 </v>
   <v>       0.46666660       0.73333340       0.00000000 </v>
   <v>       0.46666660       0.93333340       0.00000000 </v>
   <v>       0.66666660       0.13333340       0.00000000 </v>
   <v>       0.66666660       0.33333340       0.00000000 </v>
   <v>       0.66666660       0.53333340       0.00000000 </v>
   <v>       0.66666660       0.73333340       0.00000000 </v>
   <v>       0.66666660       0.93333340       0.00000000 </v>
   <v>       0.86666660       0.13333340       0.00000000 </v>
   <v>       0.86666660       0.33333340       0.00000000 </v>
   <v>       0.86666660       0.53333340       0.00000000 </v>
   <v>       0.86666660       0.73333340       0.00000000 </v>
   <v>       0.86666660       0.93333340       0.00000000 </v>
   <v>       0.13333340       0.06666660       0.35149823 </v>
   <v>       0.13333340       0.26666660       0.35149823 </v>
   <v>       0.13333340       0.46666660       0.35149823 </v>
   <v>       0.13333340       0.66666660       0.35149823 </v>
   <v>       0.13333340       0.86666660       0.35149823 </v>
   <v>       0.33333340       0.06666660       0.35149823 </v>
   <v>       0.33333340       0.26666660       0.35149823 </v>
   <v>       0.33333340       0.46666660       0.35149823 </v>
   <v>       0.33333340       0.66666660       0.35149823 </v>
   <v>       0.33333340       0.86666660       0.35149823 </v>
   <v>       0.53333340       0.06666660       0.35149823 </v>
   <v>       0.53333340       0.26666660       0.35149823 </v>
   <v>       0.53333340       0.46666660       0.35149823 </v>
   <v>       0.53333340       0.66666660       0.35149823 </v>
   <v>       0.53333340       0.86666660       0.35149823 </v>
   <v>       0.73333340       0.06666660       0.35149823 </v>
   <v>       0.73333340       0.26666660       0.35149823 </v>
   <v>       0.73333340       0.46666660       0.35149823 </v>
   <v>       0.73333340       0.66666660       0.35149823 </v>
   <v>       0.73333340       0.86666660       0.35149823 </v>
   <v>       0.93333340       0.06666660       0.35149823 </v>
   <v>       0.93333340       0.26666660       0.35149823 </v>
   <v>       0.93333340       0.46666660       0.35149823 </v>
   <v>       0.93333340       0.66666660       0.35149823 </v>
   <v>       0.93333340       0.86666660       0.35149823 </v>
   <v>       0.06666660       0.13333340       0.11078890 </v>
   <v>       0.06666660       0.33333340       0.11078890 </v>
   <v>       0.06666660       0.53333340       0.11078890 </v>
   <v>       0.06666660       0.73333340       0.11078890 </v>
   <v>       0.06666660       0.93333340       0.11078890 </v>
   <v>       0.26666660       0.13333340       0.11078890 </v>
   <v>       0.26666660       0.33333340       0.11078890 </v>
   <v>       0.26666660       0.53333340       0.11078890 </v>
   <v>       0.26666660       0.73333340       0.11078890 </v>
   <v>       0.26666660       0.93333340       0.11078890 </v>
   <v>       0.46666660       0.13333340       0.11078890 </v>
   <v>       0.46666660       0.33333340       0.11078890 </v>
   <v>       0.46666660       0.53333340       0.11078890 </v>
   <v>       0.46666660       0.73333340       0.11078890 </v>
   <v>       0.46666660       0.93333340       0.11078890 </v>
   <v>       0.66666660       0.13333340       0.11078890 </v>
   <v>       0.66666660       0.33333340       0.11078890 </v>
   <v>       0.66666660       0.53333340       0.11078890 </v>
   <v>       0.66666660       0.73333340       0.11078890 </v>
   <v>       0.66666660       0.93333340       0.11078890 </v>
   <v>       0.86666660       0.13333340       0.11078890 </v>
   <v>       0.86666660       0.33333340       0.11078890 </v>
   <v>       0.86666660       0.53333340       0.11078890 </v>
   <v>       0.86666660       0.73333340       0.11078890 </v>
   <v>       0.86666660       0.93333340       0.11078890 </v>
   <v>       0.13333340       0.06666660       0.46902354 </v>
   <v>       0.13333340       0.26666660       0.46902354 </v>
   <v>       0.13333340       0.46666660       0.46902354 </v>
   <v>       0.13333340       0.66666660       0.46902354 </v>
   <v>       0.13333340       0.86666660       0.46902354 </v>
   <v>       0.33333340       0.06666660       0.46902354 </v>
   <v>       0.33333340       0.26666660       0.46902354 </v>
   <v>       0.33333340       0.46666660       0.46902354 </v>
   <v>       0.33333340       0.66666660       0.46902354 </v>
   <v>       0.33333340       0.86666660       0.46902354 </v>
   <v>       0.53333340       0.06666660       0.46902354 </v>
   <v>       0.53333340       0.26666660       0.46902354 </v>
   <v>       0.53333340       0.46666660       0.46902354 </v>
   <v>       0.53333340       0.66666660       0.46902354 </v>
   <v>       0.53333340       0.86666660       0.46902354 </v>
   <v>       0.73333340       0.06666660       0.46902354 </v>
   <v>       0.73333340       0.26666660       0.46902354 </v>
   <v>       0.73333340       0.46666660       0.46902354 </v>
   <v>       0.73333340       0.66666660       0.46902354 </v>
   <v>       0.73333340       0.86666660       0.46902354 </v>
   <v>       0.93333340       0.06666660       0.46902354 </v>
   <v>       0.93333340       0.26666660       0.46902354 </v>
   <v>       0.93333340       0.46666660       0.46902354 </v>
   <v>       0.93333340       0.66666660       0.46902354 </v>
   <v>       0.93333340       0.86666660       0.46902354 </v>
  </varray>
 </structure>
 <calculation>
  <scstep>
   <time name="dav">  729.88  730.29</time>
   <time name="total">  733.55  733.99</time>
   <energy>
    <i name="alphaZ">   2663.50501976 </i>
    <i name="ewald"> 179392.51435700 </i>
    <i name="hartreedc">-260947.78866139 </i>
    <i name="XCdc">   2448.29848747 </i>
    <i name="pawpsdc">  52926.14902547 </i>
    <i name="pawaedc"> -51276.01167565 </i>
    <i name="eentropy">     -0.07453279 </i>
    <i name="bandstr">  -5199.73257480 </i>
    <i name="atom">  90297.61965915 </i>
    <i name="e_fr_energy">  10304.47910421 </i>
    <i name="e_wo_entrp">  10304.55363700 </i>
    <i name="e_0_energy">  10304.51637060 </i>
   </energy>
  </scstep>
  <scstep>
   <time name="dav">  747.24  747.65</time>
   <time name="total">  747.25  747.66</time>
   <energy>
    <i name="e_fr_energy">   -102.09085243 </i>
    <i name="e_wo_entrp">   -102.09078275 </i>
    <i name="e_0_energy">   -102.09081759 </i>
   </energy>
  </scstep>
  <scstep>
   <time name="dav">  747.07  747.48</time>
   <time name="total">  747.08  747.49</time>
   <energy>
    <i name="e_fr_energy">  -1071.95693284 </i>
    <i name="e_wo_entrp">  -1071.95693284 </i>
    <i name="e_0_energy">  -1071.95693284 </i>
   </energy>
  </scstep>
  <scstep>
   <time name="dav">  771.47  771.89</time>
   <time name="total">  771.47  771.90</time>
   <energy>
    <i name="e_fr_energy">  -1106.93974138 </i>
    <i name="e_wo_entrp">  -1106.93974138 </i>
    <i name="e_0_energy">  -1106.93974138 </i>
   </energy>
  </scstep>
  <scstep>
   <time name="dav">  761.35  761.77</time>
   <time name="total">  771.74  772.20</time>
   <energy>
    <i name="e_fr_energy">  -1107.95857708 </i>
    <i name="e_wo_entrp">  -1107.95857708 </i>
    <i name="e_0_energy">  -1107.95857708 </i>
   </energy>
  </scstep>
  <scstep>
   <time name="dav">  819.65  820.10</time>
   <time name="total">  833.66  834.18</time>
   <energy>
    <i name="e_fr_energy">  -1085.27054573 </i>
    <i name="e_wo_entrp">  -1085.27054573 </i>
    <i name="e_0_energy">  -1085.27054573 </i>
   </energy>
  </scstep>
  <scstep>
   <time name="dav">  717.93  718.32</time>
   <time name="total">  731.93  732.40</time>
   <energy>
    <i name="e_fr_energy">  -1076.34728578 </i>
    <i name="e_wo_entrp">  -1076.34728578 </i>
    <i name="e_0_energy">  -1076.34728578 </i>
   </energy>
  </scstep>
  <scstep>
   <time name="dav">  751.88  752.29</time>
   <time name="total">  765.87  766.35</time>
   <energy>
    <i name="e_fr_energy">  -1074.08908240 </i>
    <i name="e_wo_entrp">  -1074.08908240 </i>
    <i name="e_0_energy">  -1074.08908240 </i>
   </energy>
  </scstep>
  <scstep>
   <time name="dav">  730.06  730.46</time>
   <time name="total">  744.07  744.54</time>
   <energy>
    <i name="e_fr_energy">  -1073.64460350 </i>
    <i name="e_wo_entrp">  -1073.64460350 </i>
    <i name="e_0_energy">  -1073.64460350 </i>
   </energy>
  </scstep>
  <scstep>
   <time name="dav">  730.45  730.85</time>
   <time name="total">  744.49  744.95</time>
   <energy>
    <i name="e_fr_energy">  -1073.57087724 </i>
    <i name="e_wo_entrp">  -1073.57087724 </i>
    <i name="e_0_energy">  -1073.57087724 </i>
   </energy>
  </scstep>
  <scstep>
   <time name="dav">  732.95  733.36</time>
   <time name="total">  746.98  747.44</time>
   <energy>
    <i name="e_fr_energy">  -1073.29364460 </i>
    <i name="e_wo_entrp">  -1073.29364460 </i>
    <i name="e_0_energy">  -1073.29364460 </i>
   </energy>
  </scstep>
  <scstep>
   <time name="dav">  730.38  730.78</time>
   <time name="total">  744.42  744.89</time>
   <energy>
    <i name="e_fr_energy">  -1073.26985486 </i>
    <i name="e_wo_entrp">  -1073.26985486 </i>
    <i name="e_0_energy">  -1073.26985486 </i>
   </energy>
  </scstep>
  <scstep>
   <time name="dav">  716.05  716.45</time>
   <time name="total">  730.06  730.52</time>
   <energy>
    <i name="e_fr_energy">  -1073.27202200 </i>
    <i name="e_wo_entrp">  -1073.27202200 </i>
    <i name="e_0_energy">  -1073.27202200 </i>
   </energy>
  </scstep>
  <scstep>
   <time name="dav">  727.87  728.27</time>
   <time name="total">  741.83  742.30</time>
   <energy>
    <i name="e_fr_energy">  -1073.26757132 </i>
    <i name="e_wo_entrp">  -1073.26757132 </i>
    <i name="e_0_energy">  -1073.26757132 </i>
   </energy>
  </scstep>
  <scstep>
   <time name="dav">  740.21  740.62</time>
   <time name="total">  754.22  754.69</time>
   <energy>
    <i name="e_fr_energy">  -1073.26783341 </i>
    <i name="e_wo_entrp">  -1073.26783341 </i>
    <i name="e_0_energy">  -1073.26783341 </i>
   </energy>
  </scstep>
  <scstep>
   <time name="dav">  715.72  716.11</time>
   <time name="total">  729.78  730.24</time>
   <energy>
    <i name="e_fr_energy">  -1073.26749238 </i>
    <i name="e_wo_entrp">  -1073.26749238 </i>
    <i name="e_0_energy">  -1073.26749238 </i>
   </energy>
  </scstep>
  <scstep>
   <time name="dav">  732.36  732.76</time>
   <time name="total">  746.38  746.85</time>
   <energy>
    <i name="e_fr_energy">  -1073.26739598 </i>
    <i name="e_wo_entrp">  -1073.26739598 </i>
    <i name="e_0_energy">  -1073.26739598 </i>
   </energy>
  </scstep>
  <scstep>
   <time name="dav">  672.52  672.89</time>
   <time name="total">  686.53  686.97</time>
   <energy>
    <i name="e_fr_energy">  -1073.26741392 </i>
    <i name="e_wo_entrp">  -1073.26741392 </i>
    <i name="e_0_energy">  -1073.26741392 </i>
   </energy>
  </scstep>
  <scstep>
   <time name="dav">  660.50  660.86</time>
   <time name="total">  664.11  664.51</time>
   <energy>
    <i name="alphaZ">   2663.50501976 </i>
    <i name="ewald"> 179392.51435700 </i>
    <i name="hartreedc">-260946.40698247 </i>
    <i name="XCdc">   2420.95069772 </i>
    <i name="pawpsdc">  56965.42871947 </i>
    <i name="pawaedc"> -55542.51313610 </i>
    <i name="eentropy">     -0.00000000 </i>
    <i name="bandstr"> -16324.36573964 </i>
    <i name="atom">  90297.61965915 </i>
    <i name="e_fr_energy">  -1073.26740511 </i>
    <i name="e_wo_entrp">  -1073.26740511 </i>
    <i name="e_0_energy">  -1073.26740511 </i>
   </energy>
  </scstep>
  <structure>
   <crystal>
    <varray name="basis" >
     <v>      15.95157981       0.00000000       0.00000000 </v>
     <v>      -7.97578990      13.81447335       0.00000000 </v>
     <v>       0.00000000       0.00000000      28.24983972 </v>
    </varray>
    <i name="volume">   6225.21022374 </i>
    <varray name="rec_basis" >
     <v>       0.06268972       0.03619392       0.00000000 </v>
     <v>       0.00000000       0.07238785       0.00000000 </v>
     <v>       0.00000000       0.00000000       0.03539843 </v>
    </varray>
   </crystal>
   <varray name="positions" >
    <v>       0.13333340       0.06666660       0.05539445 </v>
    <v>       0.13333340       0.26666660       0.05539445 </v>
    <v>       0.13333340       0.46666660       0.05539445 </v>
    <v>       0.13333340       0.66666660       0.05539445 </v>
    <v>       0.13333340       0.86666660       0.05539445 </v>
    <v>       0.33333340       0.06666660       0.05539445 </v>
    <v>       0.33333340       0.26666660       0.05539445 </v>
    <v>       0.33333340       0.46666660       0.05539445 </v>
    <v>       0.33333340       0.66666660       0.05539445 </v>
    <v>       0.33333340       0.86666660       0.05539445 </v>
    <v>       0.53333340       0.06666660       0.05539445 </v>
    <v>       0.53333340       0.26666660       0.05539445 </v>
    <v>       0.53333340       0.46666660       0.05539445 </v>
    <v>       0.53333340       0.66666660       0.05539445 </v>
    <v>       0.53333340       0.86666660       0.05539445 </v>
    <v>       0.73333340       0.06666660       0.05539445 </v>
    <v>       0.73333340       0.26666660       0.05539445 </v>
    <v>       0.73333340       0.46666660       0.05539445 </v>
    <v>       0.73333340       0.66666660       0.05539445 </v>
    <v>       0.73333340       0.86666660       0.05539445 </v>
    <v>       0.93333340       0.06666660       0.05539445 </v>
    <v>       0.93333340       0.26666660       0.05539445 </v>
    <v>       0.93333340       0.46666660       0.05539445 </v>
    <v>       0.93333340       0.66666660       0.05539445 </v>
    <v>       0.93333340       0.86666660       0.05539445 </v>
    <v>       0.06666660       0.13333340       0.41026088 </v>
    <v>       0.06666660       0.33333340       0.41026088 </v>
    <v>       0.06666660       0.53333340       0.41026088 </v>
    <v>       0.06666660       0.73333340       0.41026088 </v>
    <v>       0.06666660       0.93333340       0.41026088 </v>
    <v>       0.26666660       0.13333340       0.41026088 </v>
    <v>       0.26666660       0.33333340       0.41026088 </v>
    <v>       0.26666660       0.53333340       0.41026088 </v>
    <v>       0.26666660       0.73333340       0.41026088 </v>
    <v>       0.26666660       0.93333340       0.41026088 </v>
    <v>       0.46666660       0.13333340       0.41026088 </v>
    <v>       0.46666660       0.33333340       0.41026088 </v>
    <v>       0.46666660       0.53333340       0.41026088 </v>
    <v>       0.46666660       0.73333340       0.41026088 </v>
    <v>       0.46666660       0.93333340       0.41026088 </v>
    <v>       0.66666660       0.13333340       0.41026088 </v>
    <v>       0.66666660       0.33333340       0.41026088 </v>
    <v>       0.66666660       0.53333340       0.41026088 </v>
    <v>       0.66666660       0.73333340       0.41026088 </v>
    <v>       0.66666660       0.93333340       0.41026088 </v>
    <v>       0.86666660       0.13333340       0.41026088 </v>
    <v>       0.86666660       0.33333340       0.41026088 </v>
    <v>       0.86666660       0.53333340       0.41026088 </v>
    <v>       0.86666660       0.73333340       0.41026088 </v>
    <v>       0.86666660       0.93333340       0.41026088 </v>
    <v>       0.06666660       0.13333340       0.00000000 </v>
    <v>       0.06666660       0.33333340       0.00000000 </v>
    <v>       0.06666660       0.53333340       0.00000000 </v>
    <v>       0.06666660       0.73333340       0.00000000 </v>
    <v>       0.06666660       0.93333340       0.00000000 </v>
    <v>       0.26666660       0.13333340       0.00000000 </v>
    <v>       0.26666660       0.33333340       0.00000000 </v>
    <v>       0.26666660       0.53333340       0.00000000 </v>
    <v>       0.26666660       0.73333340       0.00000000 </v>
    <v>       0.26666660       0.93333340       0.00000000 </v>
    <v>       0.46666660       0.13333340       0.00000000 </v>
    <v>       0.46666660       0.33333340       0.00000000 </v>
    <v>       0.46666660       0.53333340       0.00000000 </v>
    <v>       0.46666660       0.73333340       0.00000000 </v>
    <v>       0.46666660       0.93333340       0.00000000 </v>
    <v>       0.66666660       0.13333340       0.00000000 </v>
    <v>       0.66666660       0.33333340       0.00000000 </v>
    <v>       0.66666660       0.53333340       0.00000000 </v>
    <v>       0.66666660       0.73333340       0.00000000 </v>
    <v>       0.66666660       0.93333340       0.00000000 </v>
    <v>       0.86666660       0.13333340       0.00000000 </v>
    <v>       0.86666660       0.33333340       0.00000000 </v>
    <v>       0.86666660       0.53333340       0.00000000 </v>
    <v>       0.86666660       0.73333340       0.00000000 </v>
    <v>       0.86666660       0.93333340       0.00000000 </v>
    <v>       0.13333340       0.06666660       0.35149823 </v>
    <v>       0.13333340       0.26666660       0.35149823 </v>
    <v>       0.13333340       0.46666660       0.35149823 </v>
    <v>       0.13333340       0.66666660       0.35149823 </v>
    <v>       0.13333340       0.86666660       0.35149823 </v>
    <v>       0.33333340       0.06666660       0.35149823 </v>
    <v>       0.33333340       0.26666660       0.35149823 </v>
    <v>       0.33333340       0.46666660       0.35149823 </v>
    <v>       0.33333340       0.66666660       0.35149823 </v>
    <v>       0.33333340       0.86666660       0.35149823 </v>
    <v>       0.53333340       0.06666660       0.35149823 </v>
    <v>       0.53333340       0.26666660       0.35149823 </v>
    <v>       0.53333340       0.46666660       0.35149823 </v>
    <v>       0.53333340       0.66666660       0.35149823 </v>
    <v>       0.53333340       0.86666660       0.35149823 </v>
    <v>       0.73333340       0.06666660       0.35149823 </v>
    <v>       0.73333340       0.26666660       0.35149823 </v>
    <v>       0.73333340       0.46666660       0.35149823 </v>
    <v>       0.73333340       0.66666660       0.35149823 </v>
    <v>       0.73333340       0.86666660       0.35149823 </v>
    <v>       0.93333340       0.06666660       0.35149823 </v>
    <v>       0.93333340       0.26666660       0.35149823 </v>
    <v>       0.93333340       0.46666660       0.35149823 </v>
    <v>       0.93333340       0.66666660       0.35149823 </v>
    <v>       0.93333340       0.86666660       0.35149823 </v>
    <v>       0.06666660       0.13333340       0.11078890 </v>
    <v>       0.06666660       0.33333340       0.11078890 </v>
    <v>       0.06666660       0.53333340       0.11078890 </v>
    <v>       0.06666660       0.73333340       0.11078890 </v>
    <v>       0.06666660       0.93333340       0.11078890 </v>
    <v>       0.26666660       0.13333340       0.11078890 </v>
    <v>       0.26666660       0.33333340       0.11078890 </v>
    <v>       0.26666660       0.53333340       0.11078890 </v>
    <v>       0.26666660       0.73333340       0.11078890 </v>
    <v>       0.26666660       0.93333340       0.11078890 </v>
    <v>       0.46666660       0.13333340       0.11078890 </v>
    <v>       0.46666660       0.33333340       0.11078890 </v>
    <v>       0.46666660       0.53333340       0.11078890 </v>
    <v>       0.46666660       0.73333340       0.11078890 </v>
    <v>       0.46666660       0.93333340       0.11078890 </v>
    <v>       0.66666660       0.13333340       0.11078890 </v>
    <v>       0.66666660       0.33333340       0.11078890 </v>
    <v>       0.66666660       0.53333340       0.11078890 </v>
    <v>       0.66666660       0.73333340       0.11078890 </v>
    <v>       0.66666660       0.93333340       0.11078890 </v>
    <v>       0.86666660       0.13333340       0.11078890 </v>
    <v>       0.86666660       0.33333340       0.11078890 </v>
    <v>       0.86666660       0.53333340       0.11078890 </v>
    <v>       0.86666660       0.73333340       0.11078890 </v>
    <v>       0.86666660       0.93333340       0.11078890 </v>
    <v>       0.13333340       0.06666660       0.46902354 </v>
    <v>       0.13333340       0.26666660       0.46902354 </v>
    <v>       0.13333340       0.46666660       0.46902354 </v>
    <v>       0.13333340       0.66666660       0.46902354 </v>
    <v>       0.13333340       0.86666660       0.46902354 </v>
    <v>       0.33333340       0.06666660       0.46902354 </v>
    <v>       0.33333340       0.26666660       0.46902354 </v>
    <v>       0.33333340       0.46666660       0.46902354 </v>
    <v>       0.33333340       0.66666660       0.46902354 </v>
    <v>       0.33333340       0.86666660       0.46902354 </v>
    <v>       0.53333340       0.06666660       0.46902354 </v>
    <v>       0.53333340       0.26666660       0.46902354 </v>
    <v>       0.53333340       0.46666660       0.46902354 </v>
    <v>       0.53333340       0.66666660       0.46902354 </v>
    <v>       0.53333340       0.86666660       0.46902354 </v>
    <v>       0.73333340       0.06666660       0.46902354 </v>
    <v>       0.73333340       0.26666660       0.46902354 </v>
    <v>       0.73333340       0.46666660       0.46902354 </v>
    <v>       0.73333340       0.66666660       0.46902354 </v>
    <v>       0.73333340       0.86666660       0.46902354 </v>
    <v>       0.93333340       0.06666660       0.46902354 </v>
    <v>       0.93333340       0.26666660       0.46902354 </v>
    <v>       0.93333340       0.46666660       0.46902354 </v>
    <v>       0.93333340       0.66666660       0.46902354 </v>
    <v>       0.93333340       0.86666660       0.46902354 </v>
   </varray>
  </structure>
  <varray name="forces" >
   <v>      -0.00000000      -0.00000000      -3.00169360 </v>
   <v>       0.00000000       0.00000000      -3.00169360 </v>
   <v>       0.00000000       0.00000000      -3.00169360 </v>
   <v>       0.00000000       0.00000000      -3.00169360 </v>
   <v>      -0.00000000      -0.00000000      -3.00169360 </v>
   <v>      -0.00000000      -0.00000000      -3.00169360 </v>
   <v>       0.00000000       0.00000000      -3.00169360 </v>
   <v>       0.00000000       0.00000000      -3.00169360 </v>
   <v>       0.00000000       0.00000000      -3.00169360 </v>
   <v>       0.00000000      -0.00000000      -3.00169360 </v>
   <v>      -0.00000000       0.00000000      -3.00169360 </v>
   <v>       0.00000000       0.00000000      -3.00169360 </v>
   <v>      -0.00000000       0.00000000      -3.00169360 </v>
   <v>       0.00000000      -0.00000000      -3.00169360 </v>
   <v>       0.00000000      -0.00000000      -3.00169360 </v>
   <v>      -0.00000000      -0.00000000      -3.00169360 </v>
   <v>       0.00000000       0.00000000      -3.00169360 </v>
   <v>       0.00000000       0.00000000      -3.00169360 </v>
   <v>       0.00000000       0.00000000      -3.00169360 </v>
   <v>       0.00000000      -0.00000000      -3.00169360 </v>
   <v>      -0.00000000      -0.00000000      -3.00169360 </v>
   <v>       0.00000000       0.00000000      -3.00169360 </v>
   <v>       0.00000000       0.00000000      -3.00169360 </v>
   <v>       0.00000000      -0.00000000      -3.00169360 </v>
   <v>       0.00000000      -0.00000000      -3.00169360 </v>
   <v>       0.00000000      -0.00000000      -2.73724885 </v>
   <v>      -0.00000000      -0.00000000      -2.73724885 </v>
   <v>       0.00000000       0.00000000      -2.73724885 </v>
   <v>       0.00000000       0.00000000      -2.73724885 </v>
   <v>       0.00000000       0.00000000      -2.73724885 </v>
   <v>       0.00000000      -0.00000000      -2.73724885 </v>
   <v>      -0.00000000      -0.00000000      -2.73724885 </v>
   <v>      -0.00000000      -0.00000000      -2.73724885 </v>
   <v>      -0.00000000       0.00000000      -2.73724885 </v>
   <v>       0.00000000       0.00000000      -2.73724885 </v>
   <v>       0.00000000      -0.00000000      -2.73724885 </v>
   <v>       0.00000000      -0.00000000      -2.73724885 </v>
   <v>      -0.00000000      -0.00000000      -2.73724885 </v>
   <v>      -0.00000000       0.00000000      -2.73724885 </v>
   <v>       0.00000000       0.00000000      -2.73724885 </v>
   <v>       0.00000000      -0.00000000      -2.73724885 </v>
   <v>       0.00000000      -0.00000000      -2.73724885 </v>
   <v>      -0.00000000       0.00000000      -2.73724885 </v>
   <v>       0.00000000      -0.00000000      -2.73724885 </v>
   <v>       0.00000000       0.00000000      -2.73724885 </v>
   <v>       0.00000000      -0.00000000      -2.73724885 </v>
   <v>      -0.00000000      -0.00000000      -2.73724885 </v>
   <v>       0.00000000       0.00000000      -2.73724885 </v>
   <v>       0.00000000      -0.00000000      -2.73724885 </v>
   <v>      -0.00000000       0.00000000      -2.73724885 </v>
   <v>      -0.00000000      -0.00000000      -0.00043198 </v>
   <v>       0.00000000      -0.00000000      -0.00043198 </v>
   <v>      -0.00000000      -0.00000000      -0.00043198 </v>
   <v>      -0.00000000       0.00000000      -0.00043198 </v>
   <v>       0.00000000       0.00000000      -0.00043198 </v>
   <v>      -0.00000000      -0.00000000      -0.00043198 </v>
   <v>       0.00000000      -0.00000000      -0.00043198 </v>
   <v>      -0.00000000      -0.00000000      -0.00043198 </v>
   <v>      -0.00000000      -0.00000000      -0.00043198 </v>
   <v>      -0.00000000      -0.00000000      -0.00043198 </v>
   <v>      -0.00000000      -0.00000000      -0.00043198 </v>
   <v>       0.00000000      -0.00000000      -0.00043198 </v>
   <v>       0.00000000      -0.00000000      -0.00043198 </v>
   <v>      -0.00000000       0.00000000      -0.00043198 </v>
   <v>       0.00000000      -0.00000000      -0.00043198 </v>
   <v>      -0.00000000      -0.00000000      -0.00043198 </v>
   <v>      -0.00000000      -0.00000000      -0.00043198 </v>
   <v>       0.00000000      -0.00000000      -0.00043198 </v>
   <v>      -0.00000000       0.00000000      -0.00043198 </v>
   <v>       0.00000000      -0.00000000      -0.00043198 </v>
   <v>      -0.00000000      -0.00000000      -0.00043198 </v>
   <v>       0.00000000      -0.00000000      -0.00043198 </v>
   <v>       0.00000000       0.00000000      -0.00043198 </v>
   <v>      -0.00000000       0.00000000      -0.00043198 </v>
   <v>       0.00000000      -0.00000000      -0.00043198 </v>
   <v>      -0.00000000       0.00000000       1.51204346 </v>
   <v>       0.00000000      -0.00000000       1.51204346 </v>
   <v>       0.00000000       0.00000000       1.51204346 </v>
   <v>      -0.00000000      -0.00000000       1.51204346 </v>
   <v>       0.00000000       0.00000000       1.51204346 </v>
   <v>      -0.00000000       0.00000000       1.51204346 </v>
   <v>       0.00000000       0.00000000       1.51204346 </v>
   <v>       0.00000000       0.00000000       1.51204346 </v>
   <v>      -0.00000000      -0.00000000       1.51204346 </v>
   <v>      -0.00000000      -0.00000000       1.51204346 </v>
   <v>       0.00000000       0.00000000       1.51204346 </v>
   <v>       0.00000000       0.00000000       1.51204346 </v>
   <v>       0.00000000       0.00000000       1.51204346 </v>
   <v>      -0.00000000       0.00000000       1.51204346 </v>
   <v>      -0.00000000       0.00000000       1.51204346 </v>
   <v>      -0.00000000       0.00000000       1.51204346 </v>
   <v>       0.00000000       0.00000000       1.51204346 </v>
   <v>       0.00000000       0.00000000       1.51204346 </v>
   <v>      -0.00000000       0.00000000       1.51204346 </v>
   <v>       0.00000000       0.00000000       1.51204346 </v>
   <v>       0.00000000       0.00000000       1.51204346 </v>
   <v>       0.00000000      -0.00000000       1.51204346 </v>
   <v>      -0.00000000      -0.00000000       1.51204346 </v>
   <v>      -0.00000000       0.00000000       1.51204346 </v>
   <v>       0.00000000       0.00000000       1.51204346 </v>
   <v>      -0.00000000      -0.00000000       3.01915179 </v>
   <v>      -0.00000000      -0.00000000       3.01915179 </v>
   <v>      -0.00000000      -0.00000000       3.01915179 </v>
   <v>      -0.00000000      -0.00000000       3.01915179 </v>
   <v>      -0.00000000       0.00000000       3.01915179 </v>
   <v>      -0.00000000      -0.00000000       3.01915179 </v>
   <v>      -0.00000000      -0.00000000       3.01915179 </v>
   <v>       0.00000000       0.00000000       3.01915179 </v>
   <v>      -0.00000000      -0.00000000       3.01915179 </v>
   <v>      -0.00000000      -0.00000000       3.01915179 </v>
   <v>      -0.00000000      -0.00000000       3.01915179 </v>
   <v>      -0.00000000      -0.00000000       3.01915179 </v>
   <v>      -0.00000000      -0.00000000       3.01915179 </v>
   <v>      -0.00000000      -0.00000000       3.01915179 </v>
   <v>      -0.00000000      -0.00000000       3.01915179 </v>
   <v>      -0.00000000      -0.00000000       3.01915179 </v>
   <v>      -0.00000000      -0.00000000       3.01915179 </v>
   <v>      -0.00000000       0.00000000       3.01915179 </v>
   <v>      -0.00000000      -0.00000000       3.01915179 </v>
   <v>      -0.00000000      -0.00000000       3.01915179 </v>
   <v>      -0.00000000      -0.00000000       3.01915179 </v>
   <v>      -0.00000000      -0.00000000       3.01915179 </v>
   <v>       0.00000000      -0.00000000       3.01915179 </v>
   <v>      -0.00000000      -0.00000000       3.01915179 </v>
   <v>      -0.00000000       0.00000000       3.01915179 </v>
   <v>      -0.00000000       0.00000000       1.20817918 </v>
   <v>       0.00000000      -0.00000000       1.20817918 </v>
   <v>       0.00000000       0.00000000       1.20817918 </v>
   <v>       0.00000000       0.00000000       1.20817918 </v>
   <v>      -0.00000000      -0.00000000       1.20817918 </v>
   <v>       0.00000000      -0.00000000       1.20817918 </v>
   <v>       0.00000000       0.00000000       1.20817918 </v>
   <v>       0.00000000      -0.00000000       1.20817918 </v>
   <v>      -0.00000000       0.00000000       1.20817918 </v>
   <v>      -0.00000000      -0.00000000       1.20817918 </v>
   <v>       0.00000000      -0.00000000       1.20817918 </v>
   <v>       0.00000000       0.00000000       1.20817918 </v>
   <v>       0.00000000       0.00000000       1.20817918 </v>
   <v>      -0.00000000       0.00000000       1.20817918 </v>
   <v>      -0.00000000      -0.00000000       1.20817918 </v>
   <v>       0.00000000       0.00000000       1.20817918 </v>
   <v>       0.00000000       0.00000000       1.20817918 </v>
   <v>       0.00000000       0.00000000       1.20817918 </v>
   <v>      -0.00000000      -0.00000000       1.20817918 </v>
   <v>      -0.00000000       0.00000000       1.20817918 </v>
   <v>       0.00000000      -0.00000000       1.20817918 </v>
   <v>       0.00000000      -0.00000000       1.20817918 </v>
   <v>      -0.00000000      -0.00000000       1.20817918 </v>
   <v>      -0.00000000      -0.00000000       1.20817918 </v>
   <v>      -0.00000000       0.00000000       1.20817918 </v>
  </varray>
  <varray name="stress" >
   <v>      24.30281920      -0.00000000      -0.00000000 </v>
   <v>       0.00000000      24.30281920      -0.00000000 </v>
   <v>      -0.00000000       0.00000000      25.59293305 </v>
  </varray>
  <energy>
   <i name="e_fr_energy">  -1124.58705572 </i>
   <i name="e_wo_entrp">  -1124.58705572 </i>
   <i name="e_0_energy">     -0.00000000 </i>
  </energy>
  <time name="totalsc">15539.0115549.47</time>
 </calculation>
 <calculation>
  <scstep>
   <time name="dav">  667.17  667.53</time>
   <time name="total">  681.19  681.63</time>
   <energy>
    <i name="alphaZ">   2663.50501976 </i>
    <i name="ewald"> 177896.23872689 </i>
    <i name="hartreedc">-259515.08045258 </i>
    <i name="XCdc">   2415.07860300 </i>
    <i name="pawpsdc">  56964.18095332 </i>
    <i name="pawaedc"> -55541.22773577 </i>
    <i name="eentropy">     -0.00000000 </i>
    <i name="bandstr"> -16238.30343780 </i>
    <i name="atom">  90297.61965915 </i>
    <i name="e_fr_energy">  -1057.98866402 </i>
    <i name="e_wo_entrp">  -1057.98866402 </i>
    <i name="e_0_energy">  -1057.98866402 </i>
   </energy>
  </scstep>
  <scstep>
   <time name="dav">  642.69  643.04</time>
   <time name="total">  656.71  657.13</time>
   <energy>
    <i name="e_fr_energy">  -1081.03756410 </i>
    <i name="e_wo_entrp">  -1081.03756410 </i>
    <i name="e_0_energy">  -1081.03756410 </i>
   </energy>
  </scstep>
  <scstep>
   <time name="dav">  727.69  728.09</time>
   <time name="total">  741.71  742.18</time>
   <energy>
    <i name="e_fr_energy">  -1081.10774125 </i>
    <i name="e_wo_entrp">  -1081.10774125 </i>
    <i name="e_0_energy">  -1081.10774125 </i>
   </energy>
  </scstep>
  <scstep>
   <time name="dav">  759.40  759.82</time>
   <time name="total">  773.42  773.90</time>
   <energy>
    <i name="e_fr_energy">  -1081.02006318 </i>
    <i name="e_wo_entrp">  -1081.02006318 </i>
    <i name="e_0_energy">  -1081.02006318 </i>
   </energy>
  </scstep>
  <scstep>
   <time name="dav">  732.43  732.83</time>
   <time name="total">  746.45  746.92</time>
   <energy>
    <i name="e_fr_energy">  -1081.00074589 </i>
    <i name="e_wo_entrp">  -1081.00074589 </i>
    <i name="e_0_energy">  -1081.00074589 </i>
   </energy>
  </scstep>
  <scstep>
   <time name="dav">  717.98  718.38</time>
   <time name="total">  732.07  732.54</time>
   <energy>
    <i name="e_fr_energy">  -1080.98820170 </i>
    <i name="e_wo_entrp">  -1080.98820170 </i>
    <i name="e_0_energy">  -1080.98820170 </i>
   </energy>
  </scstep>
  <scstep>
   <time name="dav">  727.55  727.95</time>
   <time name="total">  741.56  742.03</time>
   <energy>
    <i name="e_fr_energy">  -1080.98436349 </i>
    <i name="e_wo_entrp">  -1080.98436349 </i>
    <i name="e_0_energy">  -1080.98436349 </i>
   </energy>
  </scstep>
  <scstep>
   <time name="dav">  720.32  720.71</time>
   <time name="total">  734.33  734.80</time>
   <energy>
    <i name="e_fr_energy">  -1080.98403715 </i>
    <i name="e_wo_entrp">  -1080.98403715 </i>
    <i name="e_0_energy">  -1080.98403715 </i>
   </energy>
  </scstep>
  <scstep>
   <time name="dav">  744.96  745.37</time>
   <time name="total">  758.93  759.41</time>
   <energy>
    <i name="e_fr_energy">  -1080.98399078 </i>
    <i name="e_wo_entrp">  -1080.98399078 </i>
    <i name="e_0_energy">  -1080.98399078 </i>
   </energy>
  </scstep>
  <scstep>
   <time name="dav">  725.96  726.36</time>
   <time name="total">  739.96  740.43</time>
   <energy>
    <i name="e_fr_energy">  -1080.98397220 </i>
    <i name="e_wo_entrp">  -1080.98397220 </i>
    <i name="e_0_energy">  -1080.98397220 </i>
   </energy>
  </scstep>
  <scstep>
   <time name="dav">  672.62  672.98</time>
   <time name="total">  686.73  687.17</time>
   <energy>
    <i name="e_fr_energy">  -1080.98396068 </i>
    <i name="e_wo_entrp">  -1080.98396068 </i>
    <i name="e_0_energy">  -1080.98396068 </i>
   </energy>
  </scstep>
  <scstep>
   <time name="dav">  547.47  547.77</time>
   <time name="total">  551.09  551.45</time>
   <energy>
    <i name="alphaZ">   2663.50501976 </i>
    <i name="ewald"> 177896.23872689 </i>
    <i name="hartreedc">-259510.00017624 </i>
    <i name="XCdc">   2415.48477124 </i>
    <i name="pawpsdc">  56553.04974352 </i>
    <i name="pawaedc"> -55125.98339576 </i>
    <i name="eentropy">     -0.00000000 </i>
    <i name="bandstr"> -16270.89831485 </i>
    <i name="atom">  90297.61965915 </i>
    <i name="e_fr_energy">  -1080.98396629 </i>
    <i name="e_wo_entrp">  -1080.98396629 </i>
    <i name="e_0_energy">  -1080.98396629 </i>
   </energy>
  </scstep>
  <structure>
   <crystal>
    <varray name="basis" >
     <v>      15.95157981       0.00000000       0.00000000 </v>
     <v>      -7.97578990      13.81447335       0.00000000 </v>
     <v>       0.00000000       0.00000000      28.24983972 </v>
    </varray>
    <i name="volume">   6225.21022374 </i>
    <varray name="rec_basis" >
     <v>       0.06268972       0.03619392       0.00000000 </v>
     <v>       0.00000000       0.07238785       0.00000000 </v>
     <v>       0.00000000       0.00000000       0.03539843 </v>
    </varray>
   </crystal>
   <varray name="positions" >
    <v>       0.13333340       0.06666660       0.05231883 </v>
    <v>       0.13333340       0.26666660       0.05231883 </v>
    <v>       0.13333340       0.46666660       0.05231883 </v>
    <v>       0.13333340       0.66666660       0.05231883 </v>
    <v>       0.13333340       0.86666660       0.05231883 </v>
    <v>       0.33333340       0.06666660       0.05231883 </v>
    <v>       0.33333340       0.26666660       0.05231883 </v>
    <v>       0.33333340       0.46666660       0.05231883 </v>
    <v>       0.33333340       0.66666660       0.05231883 </v>
    <v>       0.33333340       0.86666660       0.05231883 </v>
    <v>       0.53333340       0.06666660       0.05231883 </v>
    <v>       0.53333340       0.26666660       0.05231883 </v>
    <v>       0.53333340       0.46666660       0.05231883 </v>
    <v>       0.53333340       0.66666660       0.05231883 </v>
    <v>       0.53333340       0.86666660       0.05231883 </v>
    <v>       0.73333340       0.06666660       0.05231883 </v>
    <v>       0.73333340       0.26666660       0.05231883 </v>
    <v>       0.73333340       0.46666660       0.05231883 </v>
    <v>       0.73333340       0.66666660       0.05231883 </v>
    <v>       0.73333340       0.86666660       0.05231883 </v>
    <v>       0.93333340       0.06666660       0.05231883 </v>
    <v>       0.93333340       0.26666660       0.05231883 </v>
    <v>       0.93333340       0.46666660       0.05231883 </v>
    <v>       0.93333340       0.66666660       0.05231883 </v>
    <v>       0.93333340       0.86666660       0.05231883 </v>
    <v>       0.06666660       0.13333340       0.40745622 </v>
    <v>       0.06666660       0.33333340       0.40745622 </v>
    <v>       0.06666660       0.53333340       0.40745622 </v>
    <v>       0.06666660       0.73333340       0.40745622 </v>
    <v>       0.06666660       0.93333340       0.40745622 </v>
    <v>       0.26666660       0.13333340       0.40745622 </v>
    <v>       0.26666660       0.33333340       0.40745622 </v>
    <v>       0.26666660       0.53333340       0.40745622 </v>
    <v>       0.26666660       0.73333340       0.40745622 </v>
    <v>       0.26666660       0.93333340       0.40745622 </v>
    <v>       0.46666660       0.13333340       0.40745622 </v>
    <v>       0.46666660       0.33333340       0.40745622 </v>
    <v>       0.46666660       0.53333340       0.40745622 </v>
    <v>       0.46666660       0.73333340       0.40745622 </v>
    <v>       0.46666660       0.93333340       0.40745622 </v>
    <v>       0.66666660       0.13333340       0.40745622 </v>
    <v>       0.66666660       0.33333340       0.40745622 </v>
    <v>       0.66666660       0.53333340       0.40745622 </v>
    <v>       0.66666660       0.73333340       0.40745622 </v>
    <v>       0.66666660       0.93333340       0.40745622 </v>
    <v>       0.86666660       0.13333340       0.40745622 </v>
    <v>       0.86666660       0.33333340       0.40745622 </v>
    <v>       0.86666660       0.53333340       0.40745622 </v>
    <v>       0.86666660       0.73333340       0.40745622 </v>
    <v>       0.86666660       0.93333340       0.40745622 </v>
    <v>       0.06666660       0.13333340      -0.00000044 </v>
    <v>       0.06666660       0.33333340      -0.00000044 </v>
    <v>       0.06666660       0.53333340      -0.00000044 </v>
    <v>       0.06666660       0.73333340      -0.00000044 </v>
    <v>       0.06666660       0.93333340      -0.00000044 </v>
    <v>       0.26666660       0.13333340      -0.00000044 </v>
    <v>       0.26666660       0.33333340      -0.00000044 </v>
    <v>       0.26666660       0.53333340      -0.00000044 </v>
    <v>       0.26666660       0.73333340      -0.00000044 </v>
    <v>       0.26666660       0.93333340      -0.00000044 </v>
    <v>       0.46666660       0.13333340      -0.00000044 </v>
    <v>       0.46666660       0.33333340      -0.00000044 </v>
    <v>       0.46666660       0.53333340      -0.00000044 </v>
    <v>       0.46666660       0.73333340      -0.00000044 </v>
    <v>       0.46666660       0.93333340      -0.00000044 </v>
    <v>       0.66666660       0.13333340      -0.00000044 </v>
    <v>       0.66666660       0.33333340      -0.00000044 </v>
    <v>       0.66666660       0.53333340      -0.00000044 </v>
    <v>       0.66666660       0.73333340      -0.00000044 </v>
    <v>       0.66666660       0.93333340      -0.00000044 </v>
    <v>       0.86666660       0.13333340      -0.00000044 </v>
    <v>       0.86666660       0.33333340      -0.00000044 </v>
    <v>       0.86666660       0.53333340      -0.00000044 </v>
    <v>       0.86666660       0.73333340      -0.00000044 </v>
    <v>       0.86666660       0.93333340      -0.00000044 </v>
    <v>       0.13333340       0.06666660       0.35304751 </v>
    <v>       0.13333340       0.26666660       0.35304751 </v>
    <v>       0.13333340       0.46666660       0.35304751 </v>
    <v>       0.13333340       0.66666660       0.35304751 </v>
    <v>       0.13333340       0.86666660       0.35304751 </v>
    <v>       0.33333340       0.06666660       0.35304751 </v>
    <v>       0.33333340       0.26666660       0.35304751 </v>
    <v>       0.33333340       0.46666660       0.35304751 </v>
    <v>       0.33333340       0.66666660       0.35304751 </v>
    <v>       0.33333340       0.86666660       0.35304751 </v>
    <v>       0.53333340       0.06666660       0.35304751 </v>
    <v>       0.53333340       0.26666660       0.35304751 </v>
    <v>       0.53333340       0.46666660       0.35304751 </v>
    <v>       0.53333340       0.66666660       0.35304751 </v>
    <v>       0.53333340       0.86666660       0.35304751 </v>
    <v>       0.73333340       0.06666660       0.35304751 </v>
    <v>       0.73333340       0.26666660       0.35304751 </v>
    <v>       0.73333340       0.46666660       0.35304751 </v>
    <v>       0.73333340       0.66666660       0.35304751 </v>
    <v>       0.73333340       0.86666660       0.35304751 </v>
    <v>       0.93333340       0.06666660       0.35304751 </v>
    <v>       0.93333340       0.26666660       0.35304751 </v>
    <v>       0.93333340       0.46666660       0.35304751 </v>
    <v>       0.93333340       0.66666660       0.35304751 </v>
    <v>       0.93333340       0.86666660       0.35304751 </v>
    <v>       0.06666660       0.13333340       0.11388241 </v>
    <v>       0.06666660       0.33333340       0.11388241 </v>
    <v>       0.06666660       0.53333340       0.11388241 </v>
    <v>       0.06666660       0.73333340       0.11388241 </v>
    <v>       0.06666660       0.93333340       0.11388241 </v>
    <v>       0.26666660       0.13333340       0.11388241 </v>
    <v>       0.26666660       0.33333340       0.11388241 </v>
    <v>       0.26666660       0.53333340       0.11388241 </v>
    <v>       0.26666660       0.73333340       0.11388241 </v>
    <v>       0.26666660       0.93333340       0.11388241 </v>
    <v>       0.46666660       0.13333340       0.11388241 </v>
    <v>       0.46666660       0.33333340       0.11388241 </v>
    <v>       0.46666660       0.53333340       0.11388241 </v>
    <v>       0.46666660       0.73333340       0.11388241 </v>
    <v>       0.46666660       0.93333340       0.11388241 </v>
    <v>       0.66666660       0.13333340       0.11388241 </v>
    <v>       0.66666660       0.33333340       0.11388241 </v>
    <v>       0.66666660       0.53333340       0.11388241 </v>
    <v>       0.66666660       0.73333340       0.11388241 </v>
    <v>       0.66666660       0.93333340       0.11388241 </v>
    <v>       0.86666660       0.13333340       0.11388241 </v>
    <v>       0.86666660       0.33333340       0.11388241 </v>
    <v>       0.86666660       0.53333340       0.11388241 </v>
    <v>       0.86666660       0.73333340       0.11388241 </v>
    <v>       0.86666660       0.93333340       0.11388241 </v>
    <v>       0.13333340       0.06666660       0.47026147 </v>
    <v>       0.13333340       0.26666660       0.47026147 </v>
    <v>       0.13333340       0.46666660       0.47026147 </v>
    <v>       0.13333340       0.66666660       0.47026147 </v>
    <v>       0.13333340       0.86666660       0.47026147 </v>
    <v>       0.33333340       0.06666660       0.47026147 </v>
    <v>       0.33333340       0.26666660       0.47026147 </v>
    <v>       0.33333340       0.46666660       0.47026147 </v>
    <v>       0.33333340       0.66666660       0.47026147 </v>
    <v>       0.33333340       0.86666660       0.47026147 </v>
    <v>       0.53333340       0.06666660       0.47026147 </v>
    <v>       0.53333340       0.26666660       0.47026147 </v>
    <v>       0.53333340       0.46666660       0.47026147 </v>
    <v>       0.53333340       0.66666660       0.47026147 </v>
    <v>       0.53333340       0.86666660       0.47026147 </v>
    <v>       0.73333340       0.06666660       0.47026147 </v>
    <v>       0.73333340       0.26666660       0.47026147 </v>
    <v>       0.73333340       0.46666660       0.47026147 </v>
    <v>       0.73333340       0.66666660       0.47026147 </v>
    <v>       0.73333340       0.86666660       0.47026147 </v>
    <v>       0.93333340       0.06666660       0.47026147 </v>
    <v>       0.93333340       0.26666660       0.47026147 </v>
    <v>       0.93333340       0.46666660       0.47026147 </v>
    <v>       0.93333340       0.66666660       0.47026147 </v>
    <v>       0.93333340       0.86666660       0.47026147 </v>
   </varray>
  </structure>
  <varray name="forces" >
   <v>      -0.00000000      -0.00000000       1.28508025 </v>
   <v>      -0.00000000       0.00000000       1.28508025 </v>
   <v>       0.00000000       0.00000000       1.28508025 </v>
   <v>       0.00000000       0.00000000       1.28508025 </v>
   <v>       0.00000000      -0.00000000       1.28508025 </v>
   <v>       0.00000000      -0.00000000       1.28508025 </v>
   <v>      -0.00000000       0.00000000       1.28508025 </v>
   <v>       0.00000000       0.00000000       1.28508025 </v>
   <v>       0.00000000       0.00000000       1.28508025 </v>
   <v>       0.00000000      -0.00000000       1.28508025 </v>
   <v>       0.00000000      -0.00000000       1.28508025 </v>
   <v>       0.00000000       0.00000000       1.28508025 </v>
   <v>       0.00000000       0.00000000       1.28508025 </v>
   <v>       0.00000000       0.00000000       1.28508025 </v>
   <v>       0.00000000      -0.00000000       1.28508025 </v>
   <v>      -0.00000000      -0.00000000       1.28508025 </v>
   <v>       0.00000000       0.00000000       1.28508025 </v>
   <v>       0.00000000       0.00000000       1.28508025 </v>
   <v>       0.00000000       0.00000000       1.28508025 </v>
   <v>       0.00000000      -0.00000000       1.28508025 </v>
   <v>       0.00000000      -0.00000000       1.28508025 </v>
   <v>       0.00000000       0.00000000       1.28508025 </v>
   <v>       0.00000000       0.00000000       1.28508025 </v>
   <v>       0.00000000      -0.00000000       1.28508025 </v>
   <v>       0.00000000      -0.00000000       1.28508025 </v>
   <v>       0.00000000       0.00000000       0.85031176 </v>
   <v>      -0.00000000       0.00000000       0.85031176 </v>
   <v>       0.00000000       0.00000000       0.85031176 </v>
   <v>       0.00000000       0.00000000       0.85031176 </v>
   <v>       0.00000000       0.00000000       0.85031176 </v>
   <v>       0.00000000       0.00000000       0.85031176 </v>
   <v>       0.00000000       0.00000000       0.85031176 </v>
   <v>       0.00000000       0.00000000       0.85031176 </v>
   <v>       0.00000000       0.00000000       0.85031176 </v>
   <v>       0.00000000       0.00000000       0.85031176 </v>
   <v>      -0.00000000       0.00000000       0.85031176 </v>
   <v>       0.00000000       0.00000000       0.85031176 </v>
   <v>       0.00000000       0.00000000       0.85031176 </v>
   <v>       0.00000000       0.00000000       0.85031176 </v>
   <v>       0.00000000      -0.00000000       0.85031176 </v>
   <v>       0.00000000       0.00000000       0.85031176 </v>
   <v>       0.00000000       0.00000000       0.85031176 </v>
   <v>      -0.00000000       0.00000000       0.85031176 </v>
   <v>       0.00000000       0.00000000       0.85031176 </v>
   <v>       0.00000000       0.00000000       0.85031176 </v>
   <v>       0.00000000       0.00000000       0.85031176 </v>
   <v>       0.00000000       0.00000000       0.85031176 </v>
   <v>       0.00000000       0.00000000       0.85031176 </v>
   <v>       0.00000000       0.00000000       0.85031176 </v>
   <v>       0.00000000       0.00000000       0.85031176 </v>
   <v>      -0.00000000      -0.00000000      -1.21008411 </v>
   <v>      -0.00000000       0.00000000      -1.21008411 </v>
   <v>      -0.00000000      -0.00000000      -1.21008411 </v>
   <v>       0.00000000       0.00000000      -1.21008411 </v>
[...]
       <r>   -24.7141     0.0000   150.0000 </r>
       <r>   -24.5523     0.0000   150.0000 </r>
       <r>   -24.3906     0.0000   150.0000 </r>
       <r>   -24.2288     0.0000   150.0000 </r>
       <r>   -24.0670     0.0000   150.0000 </r>
       <r>   -23.9052     0.0000   150.0000 </r>
       <r>   -23.7434     0.0000   150.0000 </r>
       <r>   -23.5816     0.0000   150.0000 </r>
       <r>   -23.4199     0.0000   150.0000 </r>
       <r>   -23.2581     0.0000   150.0000 </r>
       <r>   -23.0963     0.0000   150.0000 </r>
       <r>   -22.9345     0.0000   150.0000 </r>
       <r>   -22.7727     0.0000   150.0000 </r>
       <r>   -22.6109     0.0000   150.0000 </r>
       <r>   -22.4492     0.0000   150.0000 </r>
       <r>   -22.2874     0.0000   150.0000 </r>
       <r>   -22.1256     0.0000   150.0000 </r>
       <r>   -21.9638     0.0000   150.0000 </r>
       <r>   -21.8020     0.0000   150.0000 </r>
       <r>   -21.6402     0.0000   150.0000 </r>
       <r>   -21.4785     0.0000   150.0000 </r>
       <r>   -21.3167     0.0000   150.0000 </r>
       <r>   -21.1549     0.0000   150.0000 </r>
       <r>   -20.9931     0.0000   150.0000 </r>
       <r>   -20.8313     0.0000   150.0000 </r>
       <r>   -20.6695     0.0000   150.0000 </r>
       <r>   -20.5078     0.0000   150.0000 </r>
       <r>   -20.3460     0.0000   150.0000 </r>
       <r>   -20.1842     0.0000   150.0000 </r>
       <r>   -20.0224     0.0000   150.0000 </r>
       <r>   -19.8606     0.0000   150.0000 </r>
       <r>   -19.6988     0.0000   150.0000 </r>
       <r>   -19.5371     0.0000   150.0000 </r>
       <r>   -19.3753     0.0000   150.0000 </r>
       <r>   -19.2135     0.0000   150.0000 </r>
       <r>   -19.0517     0.0000   150.0000 </r>
       <r>   -18.8899     0.0000   150.0000 </r>
       <r>   -18.7281     0.0000   150.0000 </r>
       <r>   -18.5664     0.0000   150.0000 </r>
       <r>   -18.4046     0.0000   150.0000 </r>
       <r>   -18.2428     0.0000   150.0000 </r>
       <r>   -18.0810     0.0000   150.0000 </r>
       <r>   -17.9192     0.0000   150.0000 </r>
       <r>   -17.7574     0.0000   150.0000 </r>
       <r>   -17.5957     0.0000   150.0000 </r>
       <r>   -17.4339     0.0000   150.0000 </r>
       <r>   -17.2721     0.0000   150.0000 </r>
       <r>   -17.1103     0.0000   150.0000 </r>
       <r>   -16.9485     0.0000   150.0000 </r>
       <r>   -16.7867     0.0000   150.0000 </r>
       <r>   -16.6250     0.0000   150.0000 </r>
       <r>   -16.4632     0.0000   150.0000 </r>
       <r>   -16.3014     0.0000   150.0000 </r>
       <r>   -16.1396     0.0000   150.0000 </r>
       <r>   -15.9778     0.0000   150.0000 </r>
       <r>   -15.8160     0.0000   150.0000 </r>
       <r>   -15.6543     0.0000   150.0000 </r>
       <r>   -15.4925     0.4184   150.0677 </r>
       <r>   -15.3307     4.5751   150.8079 </r>
       <r>   -15.1689     7.3296   151.9937 </r>
       <r>   -15.0071     3.7261   152.5965 </r>
       <r>   -14.8453     8.4033   153.9560 </r>
       <r>   -14.6836     7.6838   155.1991 </r>
       <r>   -14.5218    18.3054   158.1606 </r>
       <r>   -14.3600    10.4054   159.8441 </r>
       <r>   -14.1982    15.3201   162.3226 </r>
       <r>   -14.0364    15.4724   164.8258 </r>
       <r>   -13.8746    23.2528   168.5877 </r>
       <r>   -13.7129    33.8500   174.0641 </r>
       <r>   -13.5511    34.3830   179.6267 </r>
       <r>   -13.3893    52.4018   188.1044 </r>
       <r>   -13.2275    63.4686   198.3726 </r>
       <r>   -13.0657    77.2640   210.8726 </r>
       <r>   -12.9039    89.2075   225.3049 </r>
       <r>   -12.7422    53.9173   234.0278 </r>
       <r>   -12.5804    50.8554   242.2554 </r>
       <r>   -12.4186    40.2889   248.7734 </r>
       <r>   -12.2568     7.5804   249.9998 </r>
       <r>   -12.0950     0.0011   250.0000 </r>
       <r>   -11.9332     0.0000   250.0000 </r>
       <r>   -11.7715     0.0000   250.0000 </r>
       <r>   -11.6097     0.0000   250.0000 </r>
       <r>   -11.4479     0.0000   250.0000 </r>
       <r>   -11.2861     0.0000   250.0000 </r>
       <r>   -11.1243     0.0000   250.0000 </r>
       <r>   -10.9625     0.0000   250.0000 </r>
       <r>   -10.8008     0.0000   250.0000 </r>
       <r>   -10.6390     0.0000   250.0000 </r>
       <r>   -10.4772     0.0000   250.0000 </r>
       <r>   -10.3154     0.0000   250.0000 </r>
       <r>   -10.1536     0.0000   250.0000 </r>
       <r>    -9.9918     0.0000   250.0000 </r>
       <r>    -9.8301     0.0000   250.0000 </r>
       <r>    -9.6683     0.0000   250.0000 </r>
       <r>    -9.5065     0.0000   250.0000 </r>
       <r>    -9.3447     0.0000   250.0000 </r>
       <r>    -9.1829     0.0000   250.0000 </r>
       <r>    -9.0211     0.0000   250.0000 </r>
       <r>    -8.8594     0.0000   250.0000 </r>
       <r>    -8.6976     0.0000   250.0000 </r>
       <r>    -8.5358     0.0000   250.0000 </r>
       <r>    -8.3740     0.0000   250.0000 </r>
       <r>    -8.2122     0.0000   250.0000 </r>
       <r>    -8.0504     0.0000   250.0000 </r>
       <r>    -7.8887     0.0000   250.0000 </r>
       <r>    -7.7269     0.0000   250.0000 </r>
       <r>    -7.5651     0.0000   250.0000 </r>
       <r>    -7.4033     0.0000   250.0000 </r>
       <r>    -7.2415     0.0000   250.0000 </r>
       <r>    -7.0797     2.1747   250.3518 </r>
       <r>    -6.9180     8.5738   251.7389 </r>
       <r>    -6.7562    19.9676   254.9693 </r>
       <r>    -6.5944    11.1872   256.7792 </r>
       <r>    -6.4326    24.4998   260.7429 </r>
       <r>    -6.2708    24.0486   264.6336 </r>
       <r>    -6.1090    46.5864   272.1705 </r>
       <r>    -5.9473    57.8337   281.5270 </r>
       <r>    -5.7855    59.7454   291.1928 </r>
       <r>    -5.6237    44.6598   298.4180 </r>
       <r>    -5.4619    63.4036   308.6757 </r>
       <r>    -5.3001    65.0065   319.1927 </r>
       <r>    -5.1383    47.2194   326.8320 </r>
       <r>    -4.9766    38.0737   332.9917 </r>
       <r>    -4.8148    68.5662   344.0845 </r>
       <r>    -4.6530    51.0132   352.3376 </r>
       <r>    -4.4912    19.5742   355.5044 </r>
       <r>    -4.3294    64.4490   365.9312 </r>
       <r>    -4.1676    87.4870   380.0851 </r>
       <r>    -4.0059    72.3049   391.7829 </r>
       <r>    -3.8441    49.1351   399.7321 </r>
       <r>    -3.6823    76.4320   412.0975 </r>
       <r>    -3.5205    81.8203   425.3347 </r>
       <r>    -3.3587    59.8135   435.0115 </r>
       <r>    -3.1969    39.8996   441.4666 </r>
       <r>    -3.0352    45.3487   448.8033 </r>
       <r>    -2.8734    72.7427   460.5719 </r>
       <r>    -2.7116    65.5725   471.1804 </r>
       <r>    -2.5498    61.2289   481.0862 </r>
       <r>    -2.3880    74.1188   493.0774 </r>
       <r>    -2.2262    75.6163   505.3109 </r>
       <r>    -2.0645    71.1104   516.8153 </r>
       <r>    -1.9027    56.2594   525.9172 </r>
       <r>    -1.7409    67.9115   536.9041 </r>
       <r>    -1.5791    50.2929   545.0407 </r>
       <r>    -1.4173    49.2463   553.0079 </r>
       <r>    -1.2555    54.5033   561.8256 </r>
       <r>    -1.0938    70.6017   573.2478 </r>
       <r>    -0.9320    74.1551   585.2449 </r>
       <r>    -0.7702    47.1648   592.8754 </r>
       <r>    -0.6084    34.1016   598.3924 </r>
       <r>    -0.4466     9.5161   599.9320 </r>
       <r>    -0.2848     0.4204   600.0000 </r>
       <r>    -0.1231     0.0000   600.0000 </r>
       <r>     0.0387     0.0000   600.0000 </r>
       <r>     0.2005     0.0000   600.0000 </r>
       <r>     0.3623     0.0000   600.0000 </r>
       <r>     0.5241     0.0000   600.0000 </r>
       <r>     0.6859     0.0000   600.0000 </r>
       <r>     0.8476     0.0000   600.0000 </r>
       <r>     1.0094     0.0001   600.0000 </r>
       <r>     1.1712     6.3734   601.0311 </r>
       <r>     1.3330    43.4126   608.0546 </r>
       <r>     1.4948    69.1408   619.2404 </r>
       <r>     1.6566    76.7364   631.6551 </r>
       <r>     1.8183    63.0134   641.8496 </r>
       <r>     1.9801    63.7329   652.1605 </r>
       <r>     2.1419   110.2164   669.9917 </r>
       <r>     2.3037   112.4947   688.1914 </r>
       <r>     2.4655   104.0470   705.0245 </r>
       <r>     2.6273    87.0098   719.1013 </r>
       <r>     2.7890    68.6994   730.2157 </r>
       <r>     2.9508    52.0920   738.6433 </r>
       <r>     3.1126    44.6373   745.8649 </r>
       <r>     3.2744    46.5529   753.3964 </r>
       <r>     3.4362    38.9444   759.6969 </r>
       <r>     3.5980    30.8299   764.6847 </r>
       <r>     3.7597    66.0701   775.3737 </r>
       <r>     3.9215    62.6857   785.5152 </r>
       <r>     4.0833    43.5458   792.5602 </r>
       <r>     4.2451    24.7146   796.5586 </r>
       <r>     4.4069    21.6652   800.0637 </r>
       <r>     4.5687    19.9036   803.2838 </r>
       <r>     4.7304    17.5852   806.1288 </r>
       <r>     4.8922    21.9641   809.6822 </r>
       <r>     5.0540    20.4758   812.9948 </r>
       <r>     5.2158    15.7043   815.5355 </r>
       <r>     5.3776     2.8685   815.9996 </r>
       <r>     5.5394     0.0025   816.0000 </r>
       <r>     5.7012     0.0000   816.0000 </r>
       <r>     5.8629     0.0000   816.0000 </r>
       <r>     6.0247     0.0000   816.0000 </r>
       <r>     6.1865     0.0000   816.0000 </r>
       <r>     6.3483     0.0000   816.0000 </r>
       <r>     6.5101     0.0000   816.0000 </r>
       <r>     6.6719     0.0000   816.0000 </r>
       <r>     6.8336     0.0000   816.0000 </r>
       <r>     6.9954     0.0000   816.0000 </r>
       <r>     7.1572     0.0000   816.0000 </r>
       <r>     7.3190     0.0000   816.0000 </r>
       <r>     7.4808     0.0000   816.0000 </r>
      </set>
     </set>
    </array>
   </total>
  </dos>
 </calculation>
 <structure name="finalpos" >
  <crystal>
   <varray name="basis" >
    <v>      15.95157981       0.00000000       0.00000000 </v>
    <v>      -7.97578990      13.81447335       0.00000000 </v>
    <v>       0.00000000       0.00000000      28.24983972 </v>
   </varray>
   <i name="volume">   6225.21022374 </i>
   <varray name="rec_basis" >
    <v>       0.06268972       0.03619392       0.00000000 </v>
    <v>       0.00000000       0.07238785       0.00000000 </v>
    <v>       0.00000000       0.00000000       0.03539843 </v>
   </varray>
  </crystal>
  <varray name="positions" >
   <v>       0.13333340       0.06666660       0.05331322 </v>
   <v>       0.13333340       0.26666660       0.05331322 </v>
   <v>       0.13333340       0.46666660       0.05331322 </v>
   <v>       0.13333340       0.66666660       0.05331322 </v>
   <v>       0.13333340       0.86666660       0.05331322 </v>
   <v>       0.33333340       0.06666660       0.05331322 </v>
   <v>       0.33333340       0.26666660       0.05331322 </v>
   <v>       0.33333340       0.46666660       0.05331322 </v>
   <v>       0.33333340       0.66666660       0.05331322 </v>
   <v>       0.33333340       0.86666660       0.05331322 </v>
   <v>       0.53333340       0.06666660       0.05331322 </v>
   <v>       0.53333340       0.26666660       0.05331322 </v>
   <v>       0.53333340       0.46666660       0.05331322 </v>
   <v>       0.53333340       0.66666660       0.05331322 </v>
   <v>       0.53333340       0.86666660       0.05331322 </v>
   <v>       0.73333340       0.06666660       0.05331322 </v>
   <v>       0.73333340       0.26666660       0.05331322 </v>
   <v>       0.73333340       0.46666660       0.05331322 </v>
   <v>       0.73333340       0.66666660       0.05331322 </v>
   <v>       0.73333340       0.86666660       0.05331322 </v>
   <v>       0.93333340       0.06666660       0.05331322 </v>
   <v>       0.93333340       0.26666660       0.05331322 </v>
   <v>       0.93333340       0.46666660       0.05331322 </v>
   <v>       0.93333340       0.66666660       0.05331322 </v>
   <v>       0.93333340       0.86666660       0.05331322 </v>
   <v>       0.06666660       0.13333340       0.40813810 </v>
   <v>       0.06666660       0.33333340       0.40813810 </v>
   <v>       0.06666660       0.53333340       0.40813810 </v>
   <v>       0.06666660       0.73333340       0.40813810 </v>
   <v>       0.06666660       0.93333340       0.40813810 </v>
   <v>       0.26666660       0.13333340       0.40813810 </v>
   <v>       0.26666660       0.33333340       0.40813810 </v>
   <v>       0.26666660       0.53333340       0.40813810 </v>
   <v>       0.26666660       0.73333340       0.40813810 </v>
   <v>       0.26666660       0.93333340       0.40813810 </v>
   <v>       0.46666660       0.13333340       0.40813810 </v>
   <v>       0.46666660       0.33333340       0.40813810 </v>
   <v>       0.46666660       0.53333340       0.40813810 </v>
   <v>       0.46666660       0.73333340       0.40813810 </v>
   <v>       0.46666660       0.93333340       0.40813810 </v>
   <v>       0.66666660       0.13333340       0.40813810 </v>
   <v>       0.66666660       0.33333340       0.40813810 </v>
   <v>       0.66666660       0.53333340       0.40813810 </v>
   <v>       0.66666660       0.73333340       0.40813810 </v>
   <v>       0.66666660       0.93333340       0.40813810 </v>
   <v>       0.86666660       0.13333340       0.40813810 </v>
   <v>       0.86666660       0.33333340       0.40813810 </v>
   <v>       0.86666660       0.53333340       0.40813810 </v>
   <v>       0.86666660       0.73333340       0.40813810 </v>
   <v>       0.86666660       0.93333340       0.40813810 </v>
   <v>       0.06666660       0.13333340      -0.00148641 </v>
   <v>       0.06666660       0.33333340      -0.00148641 </v>
   <v>       0.06666660       0.53333340      -0.00148641 </v>
   <v>       0.06666660       0.73333340      -0.00148641 </v>
   <v>       0.06666660       0.93333340      -0.00148641 </v>
   <v>       0.26666660       0.13333340      -0.00148641 </v>
   <v>       0.26666660       0.33333340      -0.00148641 </v>
   <v>       0.26666660       0.53333340      -0.00148641 </v>
   <v>       0.26666660       0.73333340      -0.00148641 </v>
   <v>       0.26666660       0.93333340      -0.00148641 </v>
   <v>       0.46666660       0.13333340      -0.00148641 </v>
   <v>       0.46666660       0.33333340      -0.00148641 </v>
   <v>       0.46666660       0.53333340      -0.00148641 </v>
   <v>       0.46666660       0.73333340      -0.00148641 </v>
   <v>       0.46666660       0.93333340      -0.00148641 </v>
   <v>       0.66666660       0.13333340      -0.00148641 </v>
   <v>       0.66666660       0.33333340      -0.00148641 </v>
   <v>       0.66666660       0.53333340      -0.00148641 </v>
   <v>       0.66666660       0.73333340      -0.00148641 </v>
   <v>       0.66666660       0.93333340      -0.00148641 </v>
   <v>       0.86666660       0.13333340      -0.00148641 </v>
   <v>       0.86666660       0.33333340      -0.00148641 </v>
   <v>       0.86666660       0.53333340      -0.00148641 </v>
   <v>       0.86666660       0.73333340      -0.00148641 </v>
   <v>       0.86666660       0.93333340      -0.00148641 </v>
   <v>       0.13333340       0.06666660       0.35299505 </v>
   <v>       0.13333340       0.26666660       0.35299505 </v>
   <v>       0.13333340       0.46666660       0.35299505 </v>
   <v>       0.13333340       0.66666660       0.35299505 </v>
   <v>       0.13333340       0.86666660       0.35299505 </v>
   <v>       0.33333340       0.06666660       0.35299505 </v>
   <v>       0.33333340       0.26666660       0.35299505 </v>
   <v>       0.33333340       0.46666660       0.35299505 </v>
   <v>       0.33333340       0.66666660       0.35299505 </v>
   <v>       0.33333340       0.86666660       0.35299505 </v>
   <v>       0.53333340       0.06666660       0.35299505 </v>
   <v>       0.53333340       0.26666660       0.35299505 </v>
   <v>       0.53333340       0.46666660       0.35299505 </v>
   <v>       0.53333340       0.66666660       0.35299505 </v>
   <v>       0.53333340       0.86666660       0.35299505 </v>
   <v>       0.73333340       0.06666660       0.35299505 </v>
   <v>       0.73333340       0.26666660       0.35299505 </v>
   <v>       0.73333340       0.46666660       0.35299505 </v>
   <v>       0.73333340       0.66666660       0.35299505 </v>
   <v>       0.73333340       0.86666660       0.35299505 </v>
   <v>       0.93333340       0.06666660       0.35299505 </v>
   <v>       0.93333340       0.26666660       0.35299505 </v>
   <v>       0.93333340       0.46666660       0.35299505 </v>
   <v>       0.93333340       0.66666660       0.35299505 </v>
   <v>       0.93333340       0.86666660       0.35299505 </v>
   <v>       0.06666660       0.13333340       0.11441583 </v>
   <v>       0.06666660       0.33333340       0.11441583 </v>
   <v>       0.06666660       0.53333340       0.11441583 </v>
   <v>       0.06666660       0.73333340       0.11441583 </v>
   <v>       0.06666660       0.93333340       0.11441583 </v>
   <v>       0.26666660       0.13333340       0.11441583 </v>
   <v>       0.26666660       0.33333340       0.11441583 </v>
   <v>       0.26666660       0.53333340       0.11441583 </v>
   <v>       0.26666660       0.73333340       0.11441583 </v>
   <v>       0.26666660       0.93333340       0.11441583 </v>
   <v>       0.46666660       0.13333340       0.11441583 </v>
   <v>       0.46666660       0.33333340       0.11441583 </v>
   <v>       0.46666660       0.53333340       0.11441583 </v>
   <v>       0.46666660       0.73333340       0.11441583 </v>
   <v>       0.46666660       0.93333340       0.11441583 </v>
   <v>       0.66666660       0.13333340       0.11441583 </v>
   <v>       0.66666660       0.33333340       0.11441583 </v>
   <v>       0.66666660       0.53333340       0.11441583 </v>
   <v>       0.66666660       0.73333340       0.11441583 </v>
   <v>       0.66666660       0.93333340       0.11441583 </v>
   <v>       0.86666660       0.13333340       0.11441583 </v>
   <v>       0.86666660       0.33333340       0.11441583 </v>
   <v>       0.86666660       0.53333340       0.11441583 </v>
   <v>       0.86666660       0.73333340       0.11441583 </v>
   <v>       0.86666660       0.93333340       0.11441583 </v>
   <v>       0.13333340       0.06666660       0.46959022 </v>
   <v>       0.13333340       0.26666660       0.46959022 </v>
   <v>       0.13333340       0.46666660       0.46959022 </v>
   <v>       0.13333340       0.66666660       0.46959022 </v>
   <v>       0.13333340       0.86666660       0.46959022 </v>
   <v>       0.33333340       0.06666660       0.46959022 </v>
   <v>       0.33333340       0.26666660       0.46959022 </v>
   <v>       0.33333340       0.46666660       0.46959022 </v>
   <v>       0.33333340       0.66666660       0.46959022 </v>
   <v>       0.33333340       0.86666660       0.46959022 </v>
   <v>       0.53333340       0.06666660       0.46959022 </v>
   <v>       0.53333340       0.26666660       0.46959022 </v>
   <v>       0.53333340       0.46666660       0.46959022 </v>
   <v>       0.53333340       0.66666660       0.46959022 </v>
   <v>       0.53333340       0.86666660       0.46959022 </v>
   <v>       0.73333340       0.06666660       0.46959022 </v>
   <v>       0.73333340       0.26666660       0.46959022 </v>
   <v>       0.73333340       0.46666660       0.46959022 </v>
   <v>       0.73333340       0.66666660       0.46959022 </v>
   <v>       0.73333340       0.86666660       0.46959022 </v>
   <v>       0.93333340       0.06666660       0.46959022 </v>
   <v>       0.93333340       0.26666660       0.46959022 </v>
   <v>       0.93333340       0.46666660       0.46959022 </v>
   <v>       0.93333340       0.66666660       0.46959022 </v>
   <v>       0.93333340       0.86666660       0.46959022 </v>
  </varray>
 </structure>
</modeling>
