<?xml version="1.0" encoding="ISO-8859-1"?>
<modeling>
 <generator>
  <i name="program" type="string">vasp </i>
  <i name="version" type="string">5.4.1  </i>
  <i name="subversion" type="string">05Feb16 (build Feb 01 2017 11:31:40) complex                          parallel </i>
  <i name="platform" type="string">IFC91_ompi </i>
  <i name="date" type="string">2025 11 04 </i>
  <i name="time" type="string">15:30:45 </i>
 </generator>
 <incar>
  <i type="string" name="SYSTEM"> MoSSe-WSSe pre-relaxation (atoms only)</i>
  <i type="string" name="PREC">accurate</i>
  <i type="string" name="ALGO"> Normal</i>
  <i type="logical" name="ADDGRID"> T  </i>
  <i type="int" name="ISPIN">     2</i>
  <i type="int" name="MAXMIX">    40</i>
  <i name="AMIX">      0.20000000</i>
  <i name="BMIX">      0.00010000</i>
  <i name="AMIX_MAG">      0.80000000</i>
  <i name="BMIX_MAG">      0.00010000</i>
  <i type="int" name="NELM">   100</i>
  <i type="int" name="NELMDL">    -5</i>
  <i type="int" name="NELMIN">     4</i>
  <i type="int" name="IBRION">     2</i>
  <i name="EDIFF">      0.00001000</i>
  <i name="EDIFFG">     -0.03000000</i>
  <i type="int" name="NSW">   150</i>
  <i type="int" name="ISIF">     2</i>
  <i name="ENCUT">    520.00000000</i>
  <i name="POTIM">      0.30000000</i>
  <v name="MAGMOM">      2.00000000      2.00000000      2.00000000      2.00000000      2.00000000      2.00000000      2.00000000      2.00000000      2.00000000      2.00000000      2.00000000      2.00000000      2.00000000      2.00000000      2.00000000      2.00000000      2.00000000      2.00000000      2.00000000      2.00000000
      2.00000000      2.00000000      2.00000000      2.00000000      2.00000000      2.00000000      2.00000000      2.00000000      2.00000000      2.00000000      2.00000000      2.00000000      2.00000000      2.00000000      2.00000000      2.00000000      2.00000000      2.00000000      2.00000000      2.00000000
      2.00000000      2.00000000      2.00000000      2.00000000      2.00000000      2.00000000      2.00000000      2.00000000      2.00000000      2.00000000      0.00000000      0.00000000      0.00000000      0.00000000      0.00000000      0.00000000      0.00000000      0.00000000      0.00000000      0.00000000
      0.00000000      0.00000000      0.00000000      0.00000000      0.00000000      0.00000000      0.00000000      0.00000000      0.00000000      0.00000000      0.00000000      0.00000000      0.00000000      0.00000000      0.00000000      0.00000000      0.00000000      0.00000000      0.00000000      0.00000000
      0.00000000      0.00000000      0.00000000      0.00000000      0.00000000      0.00000000      0.00000000      0.00000000      0.00000000      0.00000000      0.00000000      0.00000000      0.00000000      0.00000000      0.00000000      0.00000000      0.00000000      0.00000000      0.00000000      0.00000000
      0.00000000      0.00000000      0.00000000      0.00000000      0.00000000      0.00000000      0.00000000      0.00000000      0.00000000      0.00000000      0.00000000      0.00000000      0.00000000      0.00000000      0.00000000      0.00000000      0.00000000      0.00000000      0.00000000      0.00000000
      0.00000000      0.00000000      0.00000000      0.00000000      0.00000000      0.00000000      0.00000000      0.00000000      0.00000000      0.00000000      0.00000000      0.00000000      0.00000000      0.00000000      0.00000000      0.00000000      0.00000000      0.00000000      0.00000000      0.00000000
      0.00000000      0.00000000      0.00000000      0.00000000      0.00000000      0.00000000      0.00000000      0.00000000      0.00000000      0.00000000</v>
  <i type="logical" name="LREAL"> F  </i>
  <i type="int" name="ISMEAR">     0</i>
  <i name="SIGMA">      0.05000000</i>
  <i name="PSTRESS">      0.00000000</i>
  <i type="int" name="LMAXMIX">     4</i>
  <i type="logical" name="LASPH"> T  </i>
  <v type="int" name="KPOINT_BSE">    -1     0     0     0</v>
  <i type="int" name="NELM">   100</i>
  <i type="logical" name="LASPH"> T  </i>
 </incar>
 <kpoints>
  <generation param="Gamma">
   <v type="int" name="divisions">       3        3        1 </v>
   <v name="usershift">      0.00000000       0.00000000       0.00000000 </v>
   <v name="genvec1">      0.33333333       0.00000000       0.00000000 </v>
   <v name="genvec2">      0.00000000       0.33333333       0.00000000 </v>
   <v name="genvec3">      0.00000000       0.00000000       1.00000000 </v>
   <v name="shift">      0.00000000       0.00000000       0.00000000 </v>
  </generation>
  <varray name="kpointlist" >
   <v>       0.00000000       0.00000000       0.00000000 </v>
   <v>       0.33333333      -0.00000000       0.00000000 </v>
   <v>       0.33333333       0.33333333       0.00000000 </v>
  </varray>
  <varray name="weights" >
   <v>       0.11111111 </v>
   <v>       0.66666667 </v>
   <v>       0.22222222 </v>
  </varray>
 </kpoints>
 <parameters>
  <separator name="general" >
   <i type="string" name="SYSTEM">MoSSe-WSSe pre-relaxation (atoms only)</i>
   <i type="logical" name="LCOMPAT"> F  </i>
  </separator>
  <separator name="electronic" >
   <i type="string" name="PREC">accura</i>
   <i name="ENMAX">    520.00000000</i>
   <i name="ENAUG">    446.84200000</i>
   <i name="EDIFF">      0.00001000</i>
   <i type="int" name="IALGO">    38</i>
   <i type="int" name="IWAVPR">    11</i>
   <i type="int" name="NBANDS">   816</i>
   <i name="NELECT">   1200.00000000</i>
   <i type="int" name="TURBO">     0</i>
   <i type="int" name="IRESTART">     0</i>
   <i type="int" name="NREBOOT">     0</i>
   <i type="int" name="NMIN">     0</i>
   <i name="EREF">      0.00000000</i>
   <separator name="electronic smearing" >
    <i type="int" name="ISMEAR">     0</i>
    <i name="SIGMA">      0.05000000</i>
    <i name="KSPACING">      0.50000000</i>
    <i type="logical" name="KGAMMA"> T  </i>
   </separator>
   <separator name="electronic projectors" >
    <i type="logical" name="LREAL"> F  </i>
    <v name="ROPT">      0.00000000      0.00000000      0.00000000      0.00000000</v>
    <i type="int" name="LMAXPAW">  -100</i>
    <i type="int" name="LMAXMIX">     4</i>
    <i type="logical" name="NLSPLINE"> F  </i>
   </separator>
   <separator name="electronic startup" >
    <i type="int" name="ISTART">     0</i>
    <i type="int" name="ICHARG">     2</i>
    <i type="int" name="INIWAV">     1</i>
   </separator>
   <separator name="electronic spin" >
    <i type="int" name="ISPIN">     2</i>
    <i type="logical" name="LNONCOLLINEAR"> F  </i>
    <v name="MAGMOM">      2.00000000      2.00000000      2.00000000      2.00000000      2.00000000      2.00000000      2.00000000      2.00000000      2.00000000      2.00000000      2.00000000      2.00000000      2.00000000      2.00000000      2.00000000      2.00000000      2.00000000      2.00000000      2.00000000      2.00000000
      2.00000000      2.00000000      2.00000000      2.00000000      2.00000000      2.00000000      2.00000000      2.00000000      2.00000000      2.00000000      2.00000000      2.00000000      2.00000000      2.00000000      2.00000000      2.00000000      2.00000000      2.00000000      2.00000000      2.00000000
      2.00000000      2.00000000      2.00000000      2.00000000      2.00000000      2.00000000      2.00000000      2.00000000      2.00000000      2.00000000      0.00000000      0.00000000      0.00000000      0.00000000      0.00000000      0.00000000      0.00000000      0.00000000      0.00000000      0.00000000
      0.00000000      0.00000000      0.00000000      0.00000000      0.00000000      0.00000000      0.00000000      0.00000000      0.00000000      0.00000000      0.00000000      0.00000000      0.00000000      0.00000000      0.00000000      0.00000000      0.00000000      0.00000000      0.00000000      0.00000000
      0.00000000      0.00000000      0.00000000      0.00000000      0.00000000      0.00000000      0.00000000      0.00000000      0.00000000      0.00000000      0.00000000      0.00000000      0.00000000      0.00000000      0.00000000      0.00000000      0.00000000      0.00000000      0.00000000      0.00000000
      0.00000000      0.00000000      0.00000000      0.00000000      0.00000000      0.00000000      0.00000000      0.00000000      0.00000000      0.00000000      0.00000000      0.00000000      0.00000000      0.00000000      0.00000000      0.00000000      0.00000000      0.00000000      0.00000000      0.00000000
      0.00000000      0.00000000      0.00000000      0.00000000      0.00000000      0.00000000      0.00000000      0.00000000      0.00000000      0.00000000      0.00000000      0.00000000      0.00000000      0.00000000      0.00000000      0.00000000      0.00000000      0.00000000      0.00000000      0.00000000
      0.00000000      0.00000000      0.00000000      0.00000000      0.00000000      0.00000000      0.00000000      0.00000000      0.00000000      0.00000000</v>
    <i name="NUPDOWN">     -1.00000000</i>
    <i type="logical" name="LSORBIT"> F  </i>
    <v name="SAXIS">      0.00000000      0.00000000      1.00000000</v>
    <i type="logical" name="LSPIRAL"> F  </i>
    <v name="QSPIRAL">      0.00000000      0.00000000      0.00000000</v>
    <i type="logical" name="LZEROZ"> F  </i>
   </separator>
   <separator name="electronic exchange-correlation" >
    <i type="logical" name="LASPH"> T  </i>
    <i type="logical" name="LMETAGGA"> F  </i>
   </separator>
   <separator name="electronic convergence" >
    <i type="int" name="NELM">   100</i>
    <i type="int" name="NELMDL">    -5</i>
    <i type="int" name="NELMIN">     4</i>
    <i name="ENINI">    520.00000000</i>
    <separator name="electronic convergence detail" >
     <i type="logical" name="LDIAG"> T  </i>
     <i type="logical" name="LSUBROT"> F  </i>
     <i name="WEIMIN">      0.00100000</i>
     <i name="EBREAK">      0.00000000</i>
     <i name="DEPER">      0.30000000</i>
     <i type="int" name="NRMM">     4</i>
     <i name="TIME">      0.40000000</i>
    </separator>
   </separator>
   <separator name="electronic mixer" >
    <i name="AMIX">      0.20000000</i>
    <i name="BMIX">      0.00010000</i>
    <i name="AMIN">      0.10000000</i>
    <i name="AMIX_MAG">      0.80000000</i>
    <i name="BMIX_MAG">      0.00010000</i>
    <separator name="electronic mixer details" >
     <i type="int" name="IMIX">     4</i>
     <i type="logical" name="MIXFIRST"> F  </i>
     <i type="int" name="MAXMIX">    40</i>
     <i name="WC">    100.00000000</i>
     <i type="int" name="INIMIX">     1</i>
     <i type="int" name="MIXPRE">     1</i>
     <i type="int" name="MREMOVE">     5</i>
    </separator>
   </separator>
   <separator name="electronic dipolcorrection" >
    <i type="logical" name="LDIPOL"> F  </i>
    <i type="logical" name="LMONO"> F  </i>
    <i type="int" name="IDIPOL">     0</i>
    <i name="EPSILON">      1.00000000</i>
    <v name="DIPOL">   -100.00000000   -100.00000000   -100.00000000</v>
    <i name="EFIELD">      0.00000000</i>
   </separator>
  </separator>
  <separator name="grids" >
   <i type="int" name="NGX">   120</i>
   <i type="int" name="NGY">   120</i>
   <i type="int" name="NGZ">   210</i>
   <i type="int" name="NGXF">   240</i>
   <i type="int" name="NGYF">   240</i>
   <i type="int" name="NGZF">   420</i>
   <i type="logical" name="ADDGRID"> T  </i>
  </separator>
  <separator name="ionic" >
   <i type="int" name="NSW">   150</i>
   <i type="int" name="IBRION">     2</i>
   <i type="int" name="ISIF">     2</i>
   <i name="PSTRESS">      0.00000000</i>
   <i name="EDIFFG">     -0.03000000</i>
   <i type="int" name="NFREE">     1</i>
   <i name="POTIM">      0.30000000</i>
   <i name="SMASS">     -3.00000000</i>
   <i name="SCALEE">      1.00000000</i>
  </separator>
  <separator name="ionic md" >
   <i name="TEBEG">      0.00010000</i>
   <i name="TEEND">      0.00010000</i>
   <i type="int" name="NBLOCK">     1</i>
   <i type="int" name="KBLOCK">   150</i>
   <i type="int" name="NPACO">   256</i>
   <i name="APACO">     16.00000000</i>
  </separator>
  <separator name="symmetry" >
   <i type="int" name="ISYM">     2</i>
   <i name="SYMPREC">      0.00001000</i>
  </separator>
  <separator name="dos" >
   <i type="logical" name="LORBIT"> F  </i>
   <v name="RWIGS">     -1.00000000     -1.00000000     -1.00000000     -1.00000000</v>
   <i type="int" name="NEDOS">   301</i>
   <i name="EMIN">     10.00000000</i>
   <i name="EMAX">    -10.00000000</i>
   <i name="EFERMI">      0.00000000</i>
  </separator>
  <separator name="writing" >
   <i type="int" name="NWRITE">     2</i>
   <i type="logical" name="LWAVE"> T  </i>
   <i type="logical" name="LCHARG"> T  </i>
   <i type="logical" name="LPARD"> F  </i>
   <i type="logical" name="LVTOT"> F  </i>
   <i type="logical" name="LVHAR"> F  </i>
   <i type="logical" name="LELF"> F  </i>
   <i type="logical" name="LOPTICS"> F  </i>
   <v name="STM">      0.00000000      0.00000000      0.00000000      0.00000000      0.00000000      0.00000000      0.00000000</v>
  </separator>
  <separator name="performance" >
   <i type="int" name="NPAR">    48</i>
   <i type="int" name="NSIM">     4</i>
   <i type="int" name="NBLK">    -1</i>
   <i type="logical" name="LPLANE"> T  </i>
   <i type="logical" name="LSCALAPACK"> T  </i>
   <i type="logical" name="LSCAAWARE"> F  </i>
   <i type="logical" name="LSCALU"> F  </i>
   <i type="logical" name="LASYNC"> F  </i>
   <i type="logical" name="LORBITALREAL"> F  </i>
  </separator>
  <separator name="miscellaneous" >
   <i type="int" name="IDIOT">     3</i>
   <i type="logical" name="LMUSIC"> F  </i>
   <v name="POMASS">     95.94000000    183.85000000     32.06600000     78.96000000</v>
   <v name="DARWINR">      0.00000000      0.00000000      0.00000000      0.00000000</v>
   <v name="DARWINV">      1.00000000      1.00000000      1.00000000      1.00000000</v>
   <i type="logical" name="LCORR"> T  </i>
  </separator>
  <i type="logical" name="GGA_COMPAT"> T  </i>
  <i type="logical" name="LBERRY"> F  </i>
  <i type="int" name="ICORELEVEL">     0</i>
  <i type="logical" name="LDAU"> F  </i>
  <i type="int" name="I_CONSTRAINED_M">     0</i>
  <separator name="electronic exchange-correlation" >
   <i type="string" name="GGA">--</i>
   <i type="int" name="VOSKOWN">     0</i>
   <i type="logical" name="LHFCALC"> F  </i>
   <i type="string" name="PRECFOCK"></i>
   <i type="logical" name="LSYMGRAD"> F  </i>
   <i type="logical" name="LHFONE"> F  </i>
   <i type="logical" name="LRHFCALC"> F  </i>
   <i type="logical" name="LTHOMAS"> F  </i>
   <i type="logical" name="LMODELHF"> F  </i>
   <i name="ENCUT4O">     -1.00000000</i>
   <i type="int" name="EXXOEP">     0</i>
   <i type="int" name="FOURORBIT">     0</i>
   <i name="AEXX">      0.00000000</i>
   <i name="HFALPHA">      0.00000000</i>
   <i name="MCALPHA">      0.00000000</i>
   <i name="ALDAX">      1.00000000</i>
   <i name="AGGAX">      1.00000000</i>
   <i name="ALDAC">      1.00000000</i>
   <i name="AGGAC">      1.00000000</i>
   <i type="int" name="NKREDX">     1</i>
   <i type="int" name="NKREDY">     1</i>
   <i type="int" name="NKREDZ">     1</i>
   <i type="logical" name="SHIFTRED"> F  </i>
   <i type="logical" name="ODDONLY"> F  </i>
   <i type="logical" name="EVENONLY"> F  </i>
   <i type="int" name="LMAXFOCK">     0</i>
   <i type="int" name="NMAXFOCKAE">     0</i>
   <i type="logical" name="LFOCKAEDFT"> F  </i>
   <i name="HFSCREEN">      0.00000000</i>
   <i name="HFSCREENC">      0.00000000</i>
   <i type="int" name="NBANDSGWLOW">     0</i>
  </separator>
  <separator name="vdW DFT" >
   <i type="logical" name="LUSE_VDW"> F  </i>
   <i name="Zab_VDW">     -0.84910000</i>
   <i name="PARAM1">      0.12340000</i>
   <i name="PARAM2">      1.00000000</i>
   <i name="PARAM3">      0.00000000</i>
  </separator>
  <separator name="model GW" >
   <i type="int" name="MODEL_GW">     0</i>
   <i name="MODEL_EPS0">     24.90084089</i>
   <i name="MODEL_ALPHA">      1.00000000</i>
  </separator>
  <separator name="linear response parameters" >
   <i type="logical" name="LEPSILON"> F  </i>
   <i type="logical" name="LRPA"> F  </i>
   <i type="logical" name="LNABLA"> F  </i>
   <i type="logical" name="LVEL"> F  </i>
   <i type="int" name="KINTER">     0</i>
   <i name="CSHIFT">      0.10000000</i>
   <i name="OMEGAMAX">     -1.00000000</i>
   <i name="DEG_THRESHOLD">      0.00200000</i>
  </separator>
  <separator name="orbital magnetization" >
   <i type="logical" name="NUCIND"> F  </i>
   <v name="MAGPOS">      0.00000000      0.00000000      0.00000000</v>
   <i type="logical" name="LNICSALL"> T  </i>
   <i type="logical" name="ORBITALMAG"> F  </i>
   <i type="logical" name="LMAGBLOCH"> F  </i>
   <i type="logical" name="LCHIMAG"> F  </i>
   <i type="logical" name="LGAUGE"> T  </i>
   <i type="int" name="MAGATOM">     0</i>
   <v name="MAGDIPOL">      0.00000000      0.00000000      0.00000000</v>
   <v name="AVECCONST">      0.00000000      0.00000000      0.00000000</v>
  </separator>
  <separator name="response functions" >
   <i type="logical" name="LADDER"> F  </i>
   <i type="logical" name="LFXC"> F  </i>
   <i type="logical" name="LHARTREE"> T  </i>
   <i type="int" name="IBSE">     0</i>
   <v type="int" name="KPOINT">    -1     0     0     0</v>
   <i type="logical" name="LTCTE"> F  </i>
   <i type="logical" name="LTETE"> F  </i>
   <i type="logical" name="LTRIPLET"> F  </i>
   <i type="logical" name="LFXCEPS"> F  </i>
   <i type="logical" name="LFXHEG"> F  </i>
   <i type="int" name="NATURALO">     0</i>
   <i type="logical" name="L2ORDER"> F  </i>
   <i type="logical" name="LUSEW"> F  </i>
   <i name="ENCUTGW">     -2.00000000</i>
   <i name="ENCUTGWSOFT">     -2.00000000</i>
   <i name="ENCUTLF">     -1.00000000</i>
   <i type="int" name="LMAXMP2">    -1</i>
   <i name="SCISSOR">      0.00000000</i>
   <i type="int" name="NOMEGA">     0</i>
   <i type="int" name="NOMEGAR">     0</i>
   <i type="int" name="NBANDSGW">    -1</i>
   <i type="int" name="NBANDSO">    -1</i>
   <i type="int" name="NBANDSV">    -1</i>
   <i type="int" name="NELM">   100</i>
   <i type="int" name="NELMHF">     1</i>
   <i type="int" name="DIM">     3</i>
   <i type="int" name="ANTIRES">     0</i>
   <i name="OMEGAMAX">    -30.00000000</i>
   <i name="OMEGAMIN">    -30.00000000</i>
   <i name="OMEGATL">   -200.00000000</i>
   <i type="int" name="OMEGAGRID">     0</i>
   <i name="CSHIFT">     -0.10000000</i>
   <i type="logical" name="SELFENERGY"> F  </i>
   <i type="logical" name="LSPECTRAL"> F  </i>
   <i type="logical" name="LSPECTRALGW"> F  </i>
   <i type="logical" name="LSINGLES"> F  </i>
   <i type="logical" name="LFERMIGW"> F  </i>
   <i type="logical" name="ODDONLYGW"> F  </i>
   <i type="logical" name="EVENONLYGW"> F  </i>
   <i type="int" name="NKREDLFX">     1</i>
   <i type="int" name="NKREDLFY">     1</i>
   <i type="int" name="NKREDLFZ">     1</i>
   <i type="int" name="MAXMEM">  1800</i>
   <i type="int" name="TELESCOPE">     0</i>
   <i type="int" name="TAUPAR">     1</i>
   <i type="int" name="OMEGAPAR">    -1</i>
   <i name="LAMBDA">      1.00000000</i>
  </separator>
  <separator name="External order field" >
   <i name="OFIELD_KAPPA">      0.00000000</i>
   <v name="OFIELD_K">      0.00000000      0.00000000      0.00000000</v>
   <i name="OFIELD_Q6_NEAR">      0.00000000</i>
   <i name="OFIELD_Q6_FAR">      0.00000000</i>
   <i name="OFIELD_A">      0.00000000</i>
  </separator>
  <separator name="solvation model" >
   <i type="logical" name="LSOL"> F  </i>
  </separator>
 </parameters>
 <atominfo>
  <atoms>     150 </atoms>
  <types>       4 </types>
  <array name="atoms" >
   <dimension dim="1">ion</dimension>
   <field type="string">element</field>
   <field type="int">atomtype</field>
   <set>
    <rc><c>Mo</c><c>   1</c></rc>
    <rc><c>Mo</c><c>   1</c></rc>
    <rc><c>Mo</c><c>   1</c></rc>
    <rc><c>Mo</c><c>   1</c></rc>
    <rc><c>Mo</c><c>   1</c></rc>
    <rc><c>Mo</c><c>   1</c></rc>
    <rc><c>Mo</c><c>   1</c></rc>
    <rc><c>Mo</c><c>   1</c></rc>
    <rc><c>Mo</c><c>   1</c></rc>
    <rc><c>Mo</c><c>   1</c></rc>
    <rc><c>Mo</c><c>   1</c></rc>
    <rc><c>Mo</c><c>   1</c></rc>
    <rc><c>Mo</c><c>   1</c></rc>
    <rc><c>Mo</c><c>   1</c></rc>
    <rc><c>Mo</c><c>   1</c></rc>
    <rc><c>Mo</c><c>   1</c></rc>
    <rc><c>Mo</c><c>   1</c></rc>
    <rc><c>Mo</c><c>   1</c></rc>
    <rc><c>Mo</c><c>   1</c></rc>
    <rc><c>Mo</c><c>   1</c></rc>
    <rc><c>Mo</c><c>   1</c></rc>
    <rc><c>Mo</c><c>   1</c></rc>
    <rc><c>Mo</c><c>   1</c></rc>
    <rc><c>Mo</c><c>   1</c></rc>
    <rc><c>Mo</c><c>   1</c></rc>
    <rc><c>W </c><c>   2</c></rc>
    <rc><c>W </c><c>   2</c></rc>
    <rc><c>W </c><c>   2</c></rc>
    <rc><c>W </c><c>   2</c></rc>
    <rc><c>W </c><c>   2</c></rc>
    <rc><c>W </c><c>   2</c></rc>
    <rc><c>W </c><c>   2</c></rc>
    <rc><c>W </c><c>   2</c></rc>
    <rc><c>W </c><c>   2</c></rc>
    <rc><c>W </c><c>   2</c></rc>
    <rc><c>W </c><c>   2</c></rc>
    <rc><c>W </c><c>   2</c></rc>
    <rc><c>W </c><c>   2</c></rc>
    <rc><c>W </c><c>   2</c></rc>
    <rc><c>W </c><c>   2</c></rc>
    <rc><c>W </c><c>   2</c></rc>
    <rc><c>W </c><c>   2</c></rc>
    <rc><c>W </c><c>   2</c></rc>
    <rc><c>W </c><c>   2</c></rc>
    <rc><c>W </c><c>   2</c></rc>
    <rc><c>W </c><c>   2</c></rc>
    <rc><c>W </c><c>   2</c></rc>
    <rc><c>W </c><c>   2</c></rc>
    <rc><c>W </c><c>   2</c></rc>
    <rc><c>W </c><c>   2</c></rc>
    <rc><c>S </c><c>   3</c></rc>
    <rc><c>S </c><c>   3</c></rc>
    <rc><c>S </c><c>   3</c></rc>
    <rc><c>S </c><c>   3</c></rc>
    <rc><c>S </c><c>   3</c></rc>
    <rc><c>S </c><c>   3</c></rc>
    <rc><c>S </c><c>   3</c></rc>
    <rc><c>S </c><c>   3</c></rc>
    <rc><c>S </c><c>   3</c></rc>
    <rc><c>S </c><c>   3</c></rc>
    <rc><c>S </c><c>   3</c></rc>
    <rc><c>S </c><c>   3</c></rc>
    <rc><c>S </c><c>   3</c></rc>
    <rc><c>S </c><c>   3</c></rc>
    <rc><c>S </c><c>   3</c></rc>
    <rc><c>S </c><c>   3</c></rc>
    <rc><c>S </c><c>   3</c></rc>
    <rc><c>S </c><c>   3</c></rc>
    <rc><c>S </c><c>   3</c></rc>
    <rc><c>S </c><c>   3</c></rc>
    <rc><c>S </c><c>   3</c></rc>
    <rc><c>S </c><c>   3</c></rc>
    <rc><c>S </c><c>   3</c></rc>
    <rc><c>S </c><c>   3</c></rc>
    <rc><c>S </c><c>   3</c></rc>
    <rc><c>S </c><c>   3</c></rc>
    <rc><c>S </c><c>   3</c></rc>
    <rc><c>S </c><c>   3</c></rc>
    <rc><c>S </c><c>   3</c></rc>
    <rc><c>S </c><c>   3</c></rc>
    <rc><c>S </c><c>   3</c></rc>
    <rc><c>S </c><c>   3</c></rc>
    <rc><c>S </c><c>   3</c></rc>
    <rc><c>S </c><c>   3</c></rc>
    <rc><c>S </c><c>   3</c></rc>
    <rc><c>S </c><c>   3</c></rc>
    <rc><c>S </c><c>   3</c></rc>
    <rc><c>S </c><c>   3</c></rc>
    <rc><c>S </c><c>   3</c></rc>
    <rc><c>S </c><c>   3</c></rc>
    <rc><c>S </c><c>   3</c></rc>
    <rc><c>S </c><c>   3</c></rc>
    <rc><c>S </c><c>   3</c></rc>
    <rc><c>S </c><c>   3</c></rc>
    <rc><c>S </c><c>   3</c></rc>
    <rc><c>S </c><c>   3</c></rc>
    <rc><c>S </c><c>   3</c></rc>
    <rc><c>S </c><c>   3</c></rc>
    <rc><c>S </c><c>   3</c></rc>
    <rc><c>S </c><c>   3</c></rc>
    <rc><c>Se</c><c>   4</c></rc>
    <rc><c>Se</c><c>   4</c></rc>
    <rc><c>Se</c><c>   4</c></rc>
    <rc><c>Se</c><c>   4</c></rc>
    <rc><c>Se</c><c>   4</c></rc>
    <rc><c>Se</c><c>   4</c></rc>
    <rc><c>Se</c><c>   4</c></rc>
    <rc><c>Se</c><c>   4</c></rc>
    <rc><c>Se</c><c>   4</c></rc>
    <rc><c>Se</c><c>   4</c></rc>
    <rc><c>Se</c><c>   4</c></rc>
    <rc><c>Se</c><c>   4</c></rc>
    <rc><c>Se</c><c>   4</c></rc>
    <rc><c>Se</c><c>   4</c></rc>
    <rc><c>Se</c><c>   4</c></rc>
    <rc><c>Se</c><c>   4</c></rc>
    <rc><c>Se</c><c>   4</c></rc>
    <rc><c>Se</c><c>   4</c></rc>
    <rc><c>Se</c><c>   4</c></rc>
    <rc><c>Se</c><c>   4</c></rc>
    <rc><c>Se</c><c>   4</c></rc>
    <rc><c>Se</c><c>   4</c></rc>
    <rc><c>Se</c><c>   4</c></rc>
    <rc><c>Se</c><c>   4</c></rc>
    <rc><c>Se</c><c>   4</c></rc>
    <rc><c>Se</c><c>   4</c></rc>
    <rc><c>Se</c><c>   4</c></rc>
    <rc><c>Se</c><c>   4</c></rc>
    <rc><c>Se</c><c>   4</c></rc>
    <rc><c>Se</c><c>   4</c></rc>
    <rc><c>Se</c><c>   4</c></rc>
    <rc><c>Se</c><c>   4</c></rc>
    <rc><c>Se</c><c>   4</c></rc>
    <rc><c>Se</c><c>   4</c></rc>
    <rc><c>Se</c><c>   4</c></rc>
    <rc><c>Se</c><c>   4</c></rc>
    <rc><c>Se</c><c>   4</c></rc>
    <rc><c>Se</c><c>   4</c></rc>
    <rc><c>Se</c><c>   4</c></rc>
    <rc><c>Se</c><c>   4</c></rc>
    <rc><c>Se</c><c>   4</c></rc>
    <rc><c>Se</c><c>   4</c></rc>
    <rc><c>Se</c><c>   4</c></rc>
    <rc><c>Se</c><c>   4</c></rc>
    <rc><c>Se</c><c>   4</c></rc>
    <rc><c>Se</c><c>   4</c></rc>
    <rc><c>Se</c><c>   4</c></rc>
    <rc><c>Se</c><c>   4</c></rc>
    <rc><c>Se</c><c>   4</c></rc>
    <rc><c>Se</c><c>   4</c></rc>
   </set>
  </array>
  <array name="atomtypes" >
   <dimension dim="1">type</dimension>
   <field type="int">atomspertype</field>
   <field type="string">element</field>
   <field>mass</field>
   <field>valence</field>
   <field type="string">pseudopotential</field>
   <set>
    <rc><c>  25</c><c>Mo</c><c>     95.94000000</c><c>     12.00000000</c><c> PAW_PBE Mo_pv 08Apr2002                </c></rc>
    <rc><c>  25</c><c>W </c><c>    183.85000000</c><c>     12.00000000</c><c> PAW_PBE W_pv 06Sep2000                 </c></rc>
    <rc><c>  50</c><c>S </c><c>     32.06600000</c><c>      6.00000000</c><c>  PAW_PBE S 17Jan2003                   </c></rc>
    <rc><c>  50</c><c>Se</c><c>     78.96000000</c><c>      6.00000000</c><c> PAW_PBE Se 06Sep2000                   </c></rc>
   </set>
  </array>
 </atominfo>
 <structure name="initialpos" >
  <crystal>
   <varray name="basis" >
    <v>      15.95157981       0.00000000       0.00000000 </v>
    <v>      -7.97578990      13.81447335       0.00000000 </v>
    <v>       0.00000000       0.00000000      28.24983972 </v>
   </varray>
   <i name="volume">   6225.21022374 </i>
   <varray name="rec_basis" >
    <v>       0.06268972       0.03619392       0.00000000 </v>
    <v>       0.00000000       0.07238785       0.00000000 </v>
    <v>       0.00000000       0.00000000       0.03539843 </v>
   </varray>
  </crystal>
  <varray name="positions" >
   <v>       0.13333340       0.06666660       0.05539445 </v>
   <v>       0.13333340       0.26666660       0.05539445 </v>
   <v>       0.13333340       0.46666660       0.05539445 </v>
   <v>       0.13333340       0.66666660       0.05539445 </v>
   <v>       0.13333340       0.86666660       0.05539445 </v>
   <v>       0.33333340       0.06666660       0.05539445 </v>
   <v>       0.33333340       0.26666660       0.05539445 </v>
   <v>       0.33333340       0.46666660       0.05539445 </v>
   <v>       0.33333340       0.66666660       0.05539445 </v>
   <v>       0.33333340       0.86666660       0.05539445 </v>
   <v>       0.53333340       0.06666660       0.05539445 </v>
   <v>       0.53333340       0.26666660       0.05539445 </v>
   <v>       0.53333340       0.46666660       0.05539445 </v>
   <v>       0.53333340       0.66666660       0.05539445 </v>
   <v>       0.53333340       0.86666660       0.05539445 </v>
   <v>       0.73333340       0.06666660       0.05539445 </v>
   <v>       0.73333340       0.26666660       0.05539445 </v>
   <v>       0.73333340       0.46666660       0.05539445 </v>
   <v>       0.73333340       0.66666660       0.05539445 </v>
   <v>       0.73333340       0.86666660       0.05539445 </v>
   <v>       0.93333340       0.06666660       0.05539445 </v>
   <v>       0.93333340       0.26666660       0.05539445 </v>
   <v>       0.93333340       0.46666660       0.05539445 </v>
   <v>       0.93333340       0.66666660       0.05539445 </v>
   <v>       0.93333340       0.86666660       0.05539445 </v>
   <v>       0.06666660       0.13333340       0.41026088 </v>
   <v>       0.06666660       0.33333340       0.41026088 </v>
   <v>       0.06666660       0.53333340       0.41026088 </v>
   <v>       0.06666660       0.73333340       0.41026088 </v>
   <v>       0.06666660       0.93333340       0.41026088 </v>
   <v>       0.26666660       0.13333340       0.41026088 </v>
   <v>       0.26666660       0.33333340       0.41026088 </v>
   <v>       0.26666660       0.53333340       0.41026088 </v>
   <v>       0.26666660       0.73333340       0.41026088 </v>
   <v>       0.26666660       0.93333340       0.41026088 </v>
   <v>       0.46666660       0.13333340       0.41026088 </v>
   <v>       0.46666660       0.33333340       0.41026088 </v>
   <v>       0.46666660       0.53333340       0.41026088 </v>
   <v>       0.46666660       0.73333340       0.41026088 </v>
   <v>       0.46666660       0.93333340       0.41026088 </v>
   <v>       0.66666660       0.13333340       0.41026088 </v>
   <v>       0.66666660       0.33333340       0.41026088 </v>
   <v>       0.66666660       0.53333340       0.41026088 </v>
   <v>       0.66666660       0.73333340       0.41026088 </v>
   <v>       0.66666660       0.93333340       0.41026088 </v>
   <v>       0.86666660       0.13333340       0.41026088 </v>
   <v>       0.86666660       0.33333340       0.41026088 </v>
   <v>       0.86666660       0.53333340       0.41026088 </v>
   <v>       0.86666660       0.73333340       0.41026088 </v>
   <v>       0.86666660       0.93333340       0.41026088 </v>
   <v>       0.06666660       0.13333340       0.11078890 </v>
   <v>       0.06666660       0.33333340       0.11078890 </v>
   <v>       0.06666660       0.53333340       0.11078890 </v>
   <v>       0.06666660       0.73333340       0.11078890 </v>
   <v>       0.06666660       0.93333340       0.11078890 </v>
   <v>       0.26666660       0.13333340       0.11078890 </v>
   <v>       0.26666660       0.33333340       0.11078890 </v>
   <v>       0.26666660       0.53333340       0.11078890 </v>
   <v>       0.26666660       0.73333340       0.11078890 </v>
   <v>       0.26666660       0.93333340       0.11078890 </v>
   <v>       0.46666660       0.13333340       0.11078890 </v>
   <v>       0.46666660       0.33333340       0.11078890 </v>
   <v>       0.46666660       0.53333340       0.11078890 </v>
   <v>       0.46666660       0.73333340       0.11078890 </v>
   <v>       0.46666660       0.93333340       0.11078890 </v>
   <v>       0.66666660       0.13333340       0.11078890 </v>
   <v>       0.66666660       0.33333340       0.11078890 </v>
   <v>       0.66666660       0.53333340       0.11078890 </v>
   <v>       0.66666660       0.73333340       0.11078890 </v>
   <v>       0.66666660       0.93333340       0.11078890 </v>
   <v>       0.86666660       0.13333340       0.11078890 </v>
   <v>       0.86666660       0.33333340       0.11078890 </v>
   <v>       0.86666660       0.53333340       0.11078890 </v>
   <v>       0.86666660       0.73333340       0.11078890 </v>
   <v>       0.86666660       0.93333340       0.11078890 </v>
   <v>       0.13333340       0.06666660       0.46902354 </v>
   <v>       0.13333340       0.26666660       0.46902354 </v>
   <v>       0.13333340       0.46666660       0.46902354 </v>
   <v>       0.13333340       0.66666660       0.46902354 </v>
   <v>       0.13333340       0.86666660       0.46902354 </v>
   <v>       0.33333340       0.06666660       0.46902354 </v>
   <v>       0.33333340       0.26666660       0.46902354 </v>
   <v>       0.33333340       0.46666660       0.46902354 </v>
   <v>       0.33333340       0.66666660       0.46902354 </v>
   <v>       0.33333340       0.86666660       0.46902354 </v>
   <v>       0.53333340       0.06666660       0.46902354 </v>
   <v>       0.53333340       0.26666660       0.46902354 </v>
   <v>       0.53333340       0.46666660       0.46902354 </v>
   <v>       0.53333340       0.66666660       0.46902354 </v>
   <v>       0.53333340       0.86666660       0.46902354 </v>
   <v>       0.73333340       0.06666660       0.46902354 </v>
   <v>       0.73333340       0.26666660       0.46902354 </v>
   <v>       0.73333340       0.46666660       0.46902354 </v>
   <v>       0.73333340       0.66666660       0.46902354 </v>
   <v>       0.73333340       0.86666660       0.46902354 </v>
   <v>       0.93333340       0.06666660       0.46902354 </v>
   <v>       0.93333340       0.26666660       0.46902354 </v>
   <v>       0.93333340       0.46666660       0.46902354 </v>
   <v>       0.93333340       0.66666660       0.46902354 </v>
   <v>       0.93333340       0.86666660       0.46902354 </v>
   <v>       0.06666660       0.13333340       0.00000000 </v>
   <v>       0.06666660       0.33333340       0.00000000 </v>
   <v>       0.06666660       0.53333340       0.00000000 </v>
   <v>       0.06666660       0.73333340       0.00000000 </v>
   <v>       0.06666660       0.93333340       0.00000000 </v>
   <v>       0.26666660       0.13333340       0.00000000 </v>
   <v>       0.26666660       0.33333340       0.00000000 </v>
   <v>       0.26666660       0.53333340       0.00000000 </v>
   <v>       0.26666660       0.73333340       0.00000000 </v>
   <v>       0.26666660       0.93333340       0.00000000 </v>
   <v>       0.46666660       0.13333340       0.00000000 </v>
   <v>       0.46666660       0.33333340       0.00000000 </v>
   <v>       0.46666660       0.53333340       0.00000000 </v>
   <v>       0.46666660       0.73333340       0.00000000 </v>
   <v>       0.46666660       0.93333340       0.00000000 </v>
   <v>       0.66666660       0.13333340       0.00000000 </v>
   <v>       0.66666660       0.33333340       0.00000000 </v>
   <v>       0.66666660       0.53333340       0.00000000 </v>
   <v>       0.66666660       0.73333340       0.00000000 </v>
   <v>       0.66666660       0.93333340       0.00000000 </v>
   <v>       0.86666660       0.13333340       0.00000000 </v>
   <v>       0.86666660       0.33333340       0.00000000 </v>
   <v>       0.86666660       0.53333340       0.00000000 </v>
   <v>       0.86666660       0.73333340       0.00000000 </v>
   <v>       0.86666660       0.93333340       0.00000000 </v>
   <v>       0.13333340       0.06666660       0.35149823 </v>
   <v>       0.13333340       0.26666660       0.35149823 </v>
   <v>       0.13333340       0.46666660       0.35149823 </v>
   <v>       0.13333340       0.66666660       0.35149823 </v>
   <v>       0.13333340       0.86666660       0.35149823 </v>
   <v>       0.33333340       0.06666660       0.35149823 </v>
   <v>       0.33333340       0.26666660       0.35149823 </v>
   <v>       0.33333340       0.46666660       0.35149823 </v>
   <v>       0.33333340       0.66666660       0.35149823 </v>
   <v>       0.33333340       0.86666660       0.35149823 </v>
   <v>       0.53333340       0.06666660       0.35149823 </v>
   <v>       0.53333340       0.26666660       0.35149823 </v>
   <v>       0.53333340       0.46666660       0.35149823 </v>
   <v>       0.53333340       0.66666660       0.35149823 </v>
   <v>       0.53333340       0.86666660       0.35149823 </v>
   <v>       0.73333340       0.06666660       0.35149823 </v>
   <v>       0.73333340       0.26666660       0.35149823 </v>
   <v>       0.73333340       0.46666660       0.35149823 </v>
   <v>       0.73333340       0.66666660       0.35149823 </v>
   <v>       0.73333340       0.86666660       0.35149823 </v>
   <v>       0.93333340       0.06666660       0.35149823 </v>
   <v>       0.93333340       0.26666660       0.35149823 </v>
   <v>       0.93333340       0.46666660       0.35149823 </v>
   <v>       0.93333340       0.66666660       0.35149823 </v>
   <v>       0.93333340       0.86666660       0.35149823 </v>
  </varray>
 </structure>
 <calculation>
  <scstep>
   <time name="dav">  729.42  729.81</time>
   <time name="total">  733.04  733.47</time>
   <energy>
    <i name="alphaZ">   2663.50501976 </i>
    <i name="ewald"> 179392.51435700 </i>
    <i name="hartreedc">-260947.78603626 </i>
    <i name="XCdc">   2448.29848886 </i>
    <i name="pawpsdc">  52926.14902547 </i>
    <i name="pawaedc"> -51276.01167565 </i>
    <i name="eentropy">     -0.07125006 </i>
    <i name="bandstr">  -5198.77303240 </i>
    <i name="atom">  90297.61965915 </i>
    <i name="e_fr_energy">  10305.44455587 </i>
    <i name="e_wo_entrp">  10305.51580593 </i>
    <i name="e_0_energy">  10305.48018090 </i>
   </energy>
  </scstep>
  <scstep>
   <time name="dav">  746.33  746.74</time>
   <time name="total">  746.34  746.74</time>
   <energy>
    <i name="e_fr_energy">   -101.89891537 </i>
    <i name="e_wo_entrp">   -101.89889791 </i>
    <i name="e_0_energy">   -101.89890664 </i>
   </energy>
  </scstep>
  <scstep>
   <time name="dav">  748.74  749.14</time>
   <time name="total">  748.74  749.15</time>
   <energy>
    <i name="e_fr_energy">  -1072.22065340 </i>
    <i name="e_wo_entrp">  -1072.22065340 </i>
    <i name="e_0_energy">  -1072.22065340 </i>
   </energy>
  </scstep>
  <scstep>
   <time name="dav">  773.19  773.60</time>
   <time name="total">  773.19  773.61</time>
   <energy>
    <i name="e_fr_energy">  -1106.94051967 </i>
    <i name="e_wo_entrp">  -1106.94051967 </i>
    <i name="e_0_energy">  -1106.94051967 </i>
   </energy>
  </scstep>
  <scstep>
   <time name="dav">  770.48  770.90</time>
   <time name="total">  780.91  781.35</time>
   <energy>
    <i name="e_fr_energy">  -1107.96303752 </i>
    <i name="e_wo_entrp">  -1107.96303752 </i>
    <i name="e_0_energy">  -1107.96303752 </i>
   </energy>
  </scstep>
  <scstep>
   <time name="dav">  823.64  824.08</time>
   <time name="total">  837.65  838.15</time>
   <energy>
    <i name="e_fr_energy">  -1085.27428299 </i>
    <i name="e_wo_entrp">  -1085.27428299 </i>
    <i name="e_0_energy">  -1085.27428299 </i>
   </energy>
  </scstep>
  <scstep>
   <time name="dav">  716.96  717.35</time>
   <time name="total">  730.97  731.42</time>
   <energy>
    <i name="e_fr_energy">  -1076.34705829 </i>
    <i name="e_wo_entrp">  -1076.34705829 </i>
    <i name="e_0_energy">  -1076.34705829 </i>
   </energy>
  </scstep>
  <scstep>
   <time name="dav">  751.08  751.48</time>
   <time name="total">  765.11  765.57</time>
   <energy>
    <i name="e_fr_energy">  -1074.08550215 </i>
    <i name="e_wo_entrp">  -1074.08550215 </i>
    <i name="e_0_energy">  -1074.08550215 </i>
   </energy>
  </scstep>
  <scstep>
   <time name="dav">  717.00  717.38</time>
   <time name="total">  731.03  731.47</time>
   <energy>
    <i name="e_fr_energy">  -1073.62783974 </i>
    <i name="e_wo_entrp">  -1073.62783974 </i>
    <i name="e_0_energy">  -1073.62783974 </i>
   </energy>
  </scstep>
  <scstep>
   <time name="dav">  729.12  729.51</time>
   <time name="total">  743.14  743.59</time>
   <energy>
    <i name="e_fr_energy">  -1073.56201942 </i>
    <i name="e_wo_entrp">  -1073.56201942 </i>
    <i name="e_0_energy">  -1073.56201942 </i>
   </energy>
  </scstep>
  <scstep>
   <time name="dav">  743.75  744.15</time>
   <time name="total">  757.76  758.22</time>
   <energy>
    <i name="e_fr_energy">  -1073.29521054 </i>
    <i name="e_wo_entrp">  -1073.29521054 </i>
    <i name="e_0_energy">  -1073.29521054 </i>
   </energy>
  </scstep>
  <scstep>
   <time name="dav">  731.54  731.93</time>
   <time name="total">  745.54  745.99</time>
   <energy>
    <i name="e_fr_energy">  -1073.26955405 </i>
    <i name="e_wo_entrp">  -1073.26955405 </i>
    <i name="e_0_energy">  -1073.26955405 </i>
   </energy>
  </scstep>
  <scstep>
   <time name="dav">  709.95  710.33</time>
   <time name="total">  723.97  724.40</time>
   <energy>
    <i name="e_fr_energy">  -1073.27193878 </i>
    <i name="e_wo_entrp">  -1073.27193878 </i>
    <i name="e_0_energy">  -1073.27193878 </i>
   </energy>
  </scstep>
  <scstep>
   <time name="dav">  716.97  717.35</time>
   <time name="total">  730.95  731.39</time>
   <energy>
    <i name="e_fr_energy">  -1073.26754758 </i>
    <i name="e_wo_entrp">  -1073.26754758 </i>
    <i name="e_0_energy">  -1073.26754758 </i>
   </energy>
  </scstep>
  <scstep>
   <time name="dav">  744.26  744.66</time>
   <time name="total">  758.28  758.74</time>
   <energy>
    <i name="e_fr_energy">  -1073.26776581 </i>
    <i name="e_wo_entrp">  -1073.26776581 </i>
    <i name="e_0_energy">  -1073.26776581 </i>
   </energy>
  </scstep>
  <scstep>
   <time name="dav">  717.30  717.68</time>
   <time name="total">  731.32  731.76</time>
   <energy>
    <i name="e_fr_energy">  -1073.26742276 </i>
    <i name="e_wo_entrp">  -1073.26742276 </i>
    <i name="e_0_energy">  -1073.26742276 </i>
   </energy>
  </scstep>
  <scstep>
   <time name="dav">  731.70  732.09</time>
   <time name="total">  745.70  746.15</time>
   <energy>
    <i name="e_fr_energy">  -1073.26731993 </i>
    <i name="e_wo_entrp">  -1073.26731993 </i>
    <i name="e_0_energy">  -1073.26731993 </i>
   </energy>
  </scstep>
  <scstep>
   <time name="dav">  676.53  676.89</time>
   <time name="total">  690.54  690.96</time>
   <energy>
    <i name="e_fr_energy">  -1073.26733838 </i>
    <i name="e_wo_entrp">  -1073.26733838 </i>
    <i name="e_0_energy">  -1073.26733838 </i>
   </energy>
  </scstep>
  <scstep>
   <time name="dav">  639.99  640.33</time>
   <time name="total">  643.65  644.02</time>
   <energy>
    <i name="alphaZ">   2663.50501976 </i>
    <i name="ewald"> 179392.51435700 </i>
    <i name="hartreedc">-260926.99129189 </i>
    <i name="XCdc">   2420.95058065 </i>
    <i name="pawpsdc">  56965.44588134 </i>
    <i name="pawaedc"> -55542.53202589 </i>
    <i name="eentropy">     -0.00000000 </i>
    <i name="bandstr"> -16343.77951090 </i>
    <i name="atom">  90297.61965915 </i>
    <i name="e_fr_energy">  -1073.26733077 </i>
    <i name="e_wo_entrp">  -1073.26733077 </i>
    <i name="e_0_energy">  -1073.26733077 </i>
   </energy>
  </scstep>
  <structure>
   <crystal>
    <varray name="basis" >
     <v>      15.95157981       0.00000000       0.00000000 </v>
     <v>      -7.97578990      13.81447335       0.00000000 </v>
     <v>       0.00000000       0.00000000      28.24983972 </v>
    </varray>
    <i name="volume">   6225.21022374 </i>
    <varray name="rec_basis" >
     <v>       0.06268972       0.03619392       0.00000000 </v>
     <v>       0.00000000       0.07238785       0.00000000 </v>
     <v>       0.00000000       0.00000000       0.03539843 </v>
    </varray>
   </crystal>
   <varray name="positions" >
    <v>       0.13333340       0.06666660       0.05539445 </v>
    <v>       0.13333340       0.26666660       0.05539445 </v>
    <v>       0.13333340       0.46666660       0.05539445 </v>
    <v>       0.13333340       0.66666660       0.05539445 </v>
    <v>       0.13333340       0.86666660       0.05539445 </v>
    <v>       0.33333340       0.06666660       0.05539445 </v>
    <v>       0.33333340       0.26666660       0.05539445 </v>
    <v>       0.33333340       0.46666660       0.05539445 </v>
    <v>       0.33333340       0.66666660       0.05539445 </v>
    <v>       0.33333340       0.86666660       0.05539445 </v>
    <v>       0.53333340       0.06666660       0.05539445 </v>
    <v>       0.53333340       0.26666660       0.05539445 </v>
    <v>       0.53333340       0.46666660       0.05539445 </v>
    <v>       0.53333340       0.66666660       0.05539445 </v>
    <v>       0.53333340       0.86666660       0.05539445 </v>
    <v>       0.73333340       0.06666660       0.05539445 </v>
    <v>       0.73333340       0.26666660       0.05539445 </v>
    <v>       0.73333340       0.46666660       0.05539445 </v>
    <v>       0.73333340       0.66666660       0.05539445 </v>
    <v>       0.73333340       0.86666660       0.05539445 </v>
    <v>       0.93333340       0.06666660       0.05539445 </v>
    <v>       0.93333340       0.26666660       0.05539445 </v>
    <v>       0.93333340       0.46666660       0.05539445 </v>
    <v>       0.93333340       0.66666660       0.05539445 </v>
    <v>       0.93333340       0.86666660       0.05539445 </v>
    <v>       0.06666660       0.13333340       0.41026088 </v>
    <v>       0.06666660       0.33333340       0.41026088 </v>
    <v>       0.06666660       0.53333340       0.41026088 </v>
    <v>       0.06666660       0.73333340       0.41026088 </v>
    <v>       0.06666660       0.93333340       0.41026088 </v>
    <v>       0.26666660       0.13333340       0.41026088 </v>
    <v>       0.26666660       0.33333340       0.41026088 </v>
    <v>       0.26666660       0.53333340       0.41026088 </v>
    <v>       0.26666660       0.73333340       0.41026088 </v>
    <v>       0.26666660       0.93333340       0.41026088 </v>
    <v>       0.46666660       0.13333340       0.41026088 </v>
    <v>       0.46666660       0.33333340       0.41026088 </v>
    <v>       0.46666660       0.53333340       0.41026088 </v>
    <v>       0.46666660       0.73333340       0.41026088 </v>
    <v>       0.46666660       0.93333340       0.41026088 </v>
    <v>       0.66666660       0.13333340       0.41026088 </v>
    <v>       0.66666660       0.33333340       0.41026088 </v>
    <v>       0.66666660       0.53333340       0.41026088 </v>
    <v>       0.66666660       0.73333340       0.41026088 </v>
    <v>       0.66666660       0.93333340       0.41026088 </v>
    <v>       0.86666660       0.13333340       0.41026088 </v>
    <v>       0.86666660       0.33333340       0.41026088 </v>
    <v>       0.86666660       0.53333340       0.41026088 </v>
    <v>       0.86666660       0.73333340       0.41026088 </v>
    <v>       0.86666660       0.93333340       0.41026088 </v>
    <v>       0.06666660       0.13333340       0.11078890 </v>
    <v>       0.06666660       0.33333340       0.11078890 </v>
    <v>       0.06666660       0.53333340       0.11078890 </v>
    <v>       0.06666660       0.73333340       0.11078890 </v>
    <v>       0.06666660       0.93333340       0.11078890 </v>
    <v>       0.26666660       0.13333340       0.11078890 </v>
    <v>       0.26666660       0.33333340       0.11078890 </v>
    <v>       0.26666660       0.53333340       0.11078890 </v>
    <v>       0.26666660       0.73333340       0.11078890 </v>
    <v>       0.26666660       0.93333340       0.11078890 </v>
    <v>       0.46666660       0.13333340       0.11078890 </v>
    <v>       0.46666660       0.33333340       0.11078890 </v>
    <v>       0.46666660       0.53333340       0.11078890 </v>
    <v>       0.46666660       0.73333340       0.11078890 </v>
    <v>       0.46666660       0.93333340       0.11078890 </v>
    <v>       0.66666660       0.13333340       0.11078890 </v>
    <v>       0.66666660       0.33333340       0.11078890 </v>
    <v>       0.66666660       0.53333340       0.11078890 </v>
    <v>       0.66666660       0.73333340       0.11078890 </v>
    <v>       0.66666660       0.93333340       0.11078890 </v>
    <v>       0.86666660       0.13333340       0.11078890 </v>
    <v>       0.86666660       0.33333340       0.11078890 </v>
    <v>       0.86666660       0.53333340       0.11078890 </v>
    <v>       0.86666660       0.73333340       0.11078890 </v>
    <v>       0.86666660       0.93333340       0.11078890 </v>
    <v>       0.13333340       0.06666660       0.46902354 </v>
    <v>       0.13333340       0.26666660       0.46902354 </v>
    <v>       0.13333340       0.46666660       0.46902354 </v>
    <v>       0.13333340       0.66666660       0.46902354 </v>
    <v>       0.13333340       0.86666660       0.46902354 </v>
    <v>       0.33333340       0.06666660       0.46902354 </v>
    <v>       0.33333340       0.26666660       0.46902354 </v>
    <v>       0.33333340       0.46666660       0.46902354 </v>
    <v>       0.33333340       0.66666660       0.46902354 </v>
    <v>       0.33333340       0.86666660       0.46902354 </v>
    <v>       0.53333340       0.06666660       0.46902354 </v>
    <v>       0.53333340       0.26666660       0.46902354 </v>
    <v>       0.53333340       0.46666660       0.46902354 </v>
    <v>       0.53333340       0.66666660       0.46902354 </v>
    <v>       0.53333340       0.86666660       0.46902354 </v>
    <v>       0.73333340       0.06666660       0.46902354 </v>
    <v>       0.73333340       0.26666660       0.46902354 </v>
    <v>       0.73333340       0.46666660       0.46902354 </v>
    <v>       0.73333340       0.66666660       0.46902354 </v>
    <v>       0.73333340       0.86666660       0.46902354 </v>
    <v>       0.93333340       0.06666660       0.46902354 </v>
    <v>       0.93333340       0.26666660       0.46902354 </v>
    <v>       0.93333340       0.46666660       0.46902354 </v>
    <v>       0.93333340       0.66666660       0.46902354 </v>
    <v>       0.93333340       0.86666660       0.46902354 </v>
    <v>       0.06666660       0.13333340       0.00000000 </v>
    <v>       0.06666660       0.33333340       0.00000000 </v>
    <v>       0.06666660       0.53333340       0.00000000 </v>
    <v>       0.06666660       0.73333340       0.00000000 </v>
    <v>       0.06666660       0.93333340       0.00000000 </v>
    <v>       0.26666660       0.13333340       0.00000000 </v>
    <v>       0.26666660       0.33333340       0.00000000 </v>
    <v>       0.26666660       0.53333340       0.00000000 </v>
    <v>       0.26666660       0.73333340       0.00000000 </v>
    <v>       0.26666660       0.93333340       0.00000000 </v>
    <v>       0.46666660       0.13333340       0.00000000 </v>
    <v>       0.46666660       0.33333340       0.00000000 </v>
    <v>       0.46666660       0.53333340       0.00000000 </v>
    <v>       0.46666660       0.73333340       0.00000000 </v>
    <v>       0.46666660       0.93333340       0.00000000 </v>
    <v>       0.66666660       0.13333340       0.00000000 </v>
    <v>       0.66666660       0.33333340       0.00000000 </v>
    <v>       0.66666660       0.53333340       0.00000000 </v>
    <v>       0.66666660       0.73333340       0.00000000 </v>
    <v>       0.66666660       0.93333340       0.00000000 </v>
    <v>       0.86666660       0.13333340       0.00000000 </v>
    <v>       0.86666660       0.33333340       0.00000000 </v>
    <v>       0.86666660       0.53333340       0.00000000 </v>
    <v>       0.86666660       0.73333340       0.00000000 </v>
    <v>       0.86666660       0.93333340       0.00000000 </v>
    <v>       0.13333340       0.06666660       0.35149823 </v>
    <v>       0.13333340       0.26666660       0.35149823 </v>
    <v>       0.13333340       0.46666660       0.35149823 </v>
    <v>       0.13333340       0.66666660       0.35149823 </v>
    <v>       0.13333340       0.86666660       0.35149823 </v>
    <v>       0.33333340       0.06666660       0.35149823 </v>
    <v>       0.33333340       0.26666660       0.35149823 </v>
    <v>       0.33333340       0.46666660       0.35149823 </v>
    <v>       0.33333340       0.66666660       0.35149823 </v>
    <v>       0.33333340       0.86666660       0.35149823 </v>
    <v>       0.53333340       0.06666660       0.35149823 </v>
    <v>       0.53333340       0.26666660       0.35149823 </v>
    <v>       0.53333340       0.46666660       0.35149823 </v>
    <v>       0.53333340       0.66666660       0.35149823 </v>
    <v>       0.53333340       0.86666660       0.35149823 </v>
    <v>       0.73333340       0.06666660       0.35149823 </v>
    <v>       0.73333340       0.26666660       0.35149823 </v>
    <v>       0.73333340       0.46666660       0.35149823 </v>
    <v>       0.73333340       0.66666660       0.35149823 </v>
    <v>       0.73333340       0.86666660       0.35149823 </v>
    <v>       0.93333340       0.06666660       0.35149823 </v>
    <v>       0.93333340       0.26666660       0.35149823 </v>
    <v>       0.93333340       0.46666660       0.35149823 </v>
    <v>       0.93333340       0.66666660       0.35149823 </v>
    <v>       0.93333340       0.86666660       0.35149823 </v>
   </varray>
  </structure>
  <varray name="forces" >
   <v>       0.00000000       0.00000000       3.01287258 </v>
   <v>       0.00000000      -0.00000000       3.01287258 </v>
   <v>       0.00000000       0.00000000       3.01287258 </v>
   <v>       0.00000000       0.00000000       3.01287258 </v>
   <v>      -0.00000000      -0.00000000       3.01287258 </v>
   <v>      -0.00000000       0.00000000       3.01287258 </v>
   <v>       0.00000000       0.00000000       3.01287258 </v>
   <v>       0.00000000       0.00000000       3.01287258 </v>
   <v>       0.00000000       0.00000000       3.01287258 </v>
   <v>      -0.00000000       0.00000000       3.01287258 </v>
   <v>      -0.00000000       0.00000000       3.01287258 </v>
   <v>       0.00000000      -0.00000000       3.01287258 </v>
   <v>       0.00000000       0.00000000       3.01287258 </v>
   <v>       0.00000000       0.00000000       3.01287258 </v>
   <v>       0.00000000       0.00000000       3.01287258 </v>
   <v>       0.00000000       0.00000000       3.01287258 </v>
   <v>       0.00000000      -0.00000000       3.01287258 </v>
   <v>      -0.00000000       0.00000000       3.01287258 </v>
   <v>       0.00000000       0.00000000       3.01287258 </v>
   <v>       0.00000000       0.00000000       3.01287258 </v>
   <v>       0.00000000       0.00000000       3.01287258 </v>
   <v>       0.00000000      -0.00000000       3.01287258 </v>
   <v>       0.00000000       0.00000000       3.01287258 </v>
   <v>       0.00000000       0.00000000       3.01287258 </v>
   <v>      -0.00000000      -0.00000000       3.01287258 </v>
   <v>       0.00000000       0.00000000       2.72567586 </v>
   <v>       0.00000000       0.00000000       2.72567586 </v>
   <v>       0.00000000      -0.00000000       2.72567586 </v>
   <v>       0.00000000      -0.00000000       2.72567586 </v>
   <v>       0.00000000      -0.00000000       2.72567586 </v>
   <v>       0.00000000      -0.00000000       2.72567586 </v>
   <v>       0.00000000       0.00000000       2.72567586 </v>
   <v>       0.00000000       0.00000000       2.72567586 </v>
   <v>       0.00000000      -0.00000000       2.72567586 </v>
   <v>       0.00000000      -0.00000000       2.72567586 </v>
   <v>       0.00000000      -0.00000000       2.72567586 </v>
   <v>       0.00000000      -0.00000000       2.72567586 </v>
   <v>       0.00000000       0.00000000       2.72567586 </v>
   <v>       0.00000000      -0.00000000       2.72567586 </v>
   <v>       0.00000000      -0.00000000       2.72567586 </v>
   <v>       0.00000000      -0.00000000       2.72567586 </v>
   <v>       0.00000000      -0.00000000       2.72567586 </v>
   <v>       0.00000000       0.00000000       2.72567586 </v>
   <v>       0.00000000      -0.00000000       2.72567586 </v>
   <v>       0.00000000      -0.00000000       2.72567586 </v>
   <v>       0.00000000      -0.00000000       2.72567586 </v>
   <v>       0.00000000       0.00000000       2.72567586 </v>
   <v>       0.00000000      -0.00000000       2.72567586 </v>
   <v>       0.00000000       0.00000000       2.72567586 </v>
   <v>       0.00000000      -0.00000000       2.72567586 </v>
   <v>      -0.00000000      -0.00000000       0.01097155 </v>
   <v>      -0.00000000      -0.00000000       0.01097155 </v>
   <v>      -0.00000000       0.00000000       0.01097155 </v>
   <v>      -0.00000000      -0.00000000       0.01097155 </v>
   <v>      -0.00000000      -0.00000000       0.01097155 </v>
   <v>      -0.00000000       0.00000000       0.01097155 </v>
   <v>      -0.00000000       0.00000000       0.01097155 </v>
   <v>      -0.00000000       0.00000000       0.01097155 </v>
   <v>      -0.00000000      -0.00000000       0.01097155 </v>
   <v>      -0.00000000      -0.00000000       0.01097155 </v>
   <v>      -0.00000000       0.00000000       0.01097155 </v>
   <v>      -0.00000000       0.00000000       0.01097155 </v>
   <v>      -0.00000000       0.00000000       0.01097155 </v>
   <v>      -0.00000000      -0.00000000       0.01097155 </v>
   <v>      -0.00000000      -0.00000000       0.01097155 </v>
   <v>      -0.00000000      -0.00000000       0.01097155 </v>
   <v>      -0.00000000       0.00000000       0.01097155 </v>
   <v>      -0.00000000       0.00000000       0.01097155 </v>
   <v>      -0.00000000      -0.00000000       0.01097155 </v>
   <v>      -0.00000000      -0.00000000       0.01097155 </v>
   <v>      -0.00000000      -0.00000000       0.01097155 </v>
   <v>      -0.00000000      -0.00000000       0.01097155 </v>
   <v>      -0.00000000      -0.00000000       0.01097155 </v>
   <v>      -0.00000000      -0.00000000       0.01097155 </v>
   <v>      -0.00000000      -0.00000000       0.01097155 </v>
   <v>      -0.00000000      -0.00000000      -1.52240794 </v>
   <v>      -0.00000000       0.00000000      -1.52240794 </v>
   <v>       0.00000000       0.00000000      -1.52240794 </v>
   <v>      -0.00000000      -0.00000000      -1.52240794 </v>
   <v>       0.00000000      -0.00000000      -1.52240794 </v>
   <v>       0.00000000       0.00000000      -1.52240794 </v>
   <v>       0.00000000       0.00000000      -1.52240794 </v>
   <v>      -0.00000000       0.00000000      -1.52240794 </v>
   <v>      -0.00000000      -0.00000000      -1.52240794 </v>
   <v>      -0.00000000      -0.00000000      -1.52240794 </v>
   <v>      -0.00000000      -0.00000000      -1.52240794 </v>
   <v>       0.00000000       0.00000000      -1.52240794 </v>
   <v>       0.00000000       0.00000000      -1.52240794 </v>
   <v>       0.00000000       0.00000000      -1.52240794 </v>
   <v>      -0.00000000      -0.00000000      -1.52240794 </v>
   <v>       0.00000000      -0.00000000      -1.52240794 </v>
   <v>       0.00000000       0.00000000      -1.52240794 </v>
   <v>      -0.00000000       0.00000000      -1.52240794 </v>
   <v>      -0.00000000      -0.00000000      -1.52240794 </v>
   <v>      -0.00000000       0.00000000      -1.52240794 </v>
   <v>       0.00000000       0.00000000      -1.52240794 </v>
   <v>       0.00000000       0.00000000      -1.52240794 </v>
   <v>       0.00000000      -0.00000000      -1.52240794 </v>
   <v>       0.00000000       0.00000000      -1.52240794 </v>
   <v>      -0.00000000       0.00000000      -1.52240794 </v>
   <v>      -0.00000000       0.00000000      -3.00662833 </v>
   <v>      -0.00000000      -0.00000000      -3.00662833 </v>
   <v>      -0.00000000       0.00000000      -3.00662833 </v>
   <v>      -0.00000000      -0.00000000      -3.00662833 </v>
   <v>       0.00000000      -0.00000000      -3.00662833 </v>
   <v>      -0.00000000      -0.00000000      -3.00662833 </v>
   <v>      -0.00000000       0.00000000      -3.00662833 </v>
   <v>      -0.00000000       0.00000000      -3.00662833 </v>
   <v>      -0.00000000      -0.00000000      -3.00662833 </v>
   <v>       0.00000000      -0.00000000      -3.00662833 </v>
   <v>      -0.00000000      -0.00000000      -3.00662833 </v>
   <v>      -0.00000000      -0.00000000      -3.00662833 </v>
   <v>      -0.00000000       0.00000000      -3.00662833 </v>
   <v>      -0.00000000      -0.00000000      -3.00662833 </v>
   <v>       0.00000000      -0.00000000      -3.00662833 </v>
   <v>      -0.00000000      -0.00000000      -3.00662833 </v>
   <v>      -0.00000000       0.00000000      -3.00662833 </v>
   <v>      -0.00000000       0.00000000      -3.00662833 </v>
   <v>      -0.00000000      -0.00000000      -3.00662833 </v>
   <v>      -0.00000000      -0.00000000      -3.00662833 </v>
   <v>      -0.00000000      -0.00000000      -3.00662833 </v>
   <v>      -0.00000000      -0.00000000      -3.00662833 </v>
   <v>      -0.00000000       0.00000000      -3.00662833 </v>
   <v>      -0.00000000      -0.00000000      -3.00662833 </v>
   <v>       0.00000000      -0.00000000      -3.00662833 </v>
   <v>       0.00000000      -0.00000000      -1.22048372 </v>
   <v>       0.00000000      -0.00000000      -1.22048372 </v>
   <v>      -0.00000000       0.00000000      -1.22048372 </v>
   <v>       0.00000000      -0.00000000      -1.22048372 </v>
   <v>       0.00000000       0.00000000      -1.22048372 </v>
   <v>       0.00000000       0.00000000      -1.22048372 </v>
   <v>       0.00000000      -0.00000000      -1.22048372 </v>
   <v>       0.00000000      -0.00000000      -1.22048372 </v>
   <v>       0.00000000      -0.00000000      -1.22048372 </v>
   <v>       0.00000000       0.00000000      -1.22048372 </v>
   <v>       0.00000000       0.00000000      -1.22048372 </v>
   <v>       0.00000000      -0.00000000      -1.22048372 </v>
   <v>       0.00000000       0.00000000      -1.22048372 </v>
   <v>       0.00000000      -0.00000000      -1.22048372 </v>
   <v>       0.00000000       0.00000000      -1.22048372 </v>
   <v>       0.00000000       0.00000000      -1.22048372 </v>
   <v>       0.00000000       0.00000000      -1.22048372 </v>
   <v>      -0.00000000       0.00000000      -1.22048372 </v>
   <v>       0.00000000      -0.00000000      -1.22048372 </v>
   <v>       0.00000000       0.00000000      -1.22048372 </v>
   <v>       0.00000000      -0.00000000      -1.22048372 </v>
   <v>       0.00000000       0.00000000      -1.22048372 </v>
   <v>      -0.00000000       0.00000000      -1.22048372 </v>
   <v>       0.00000000      -0.00000000      -1.22048372 </v>
   <v>       0.00000000       0.00000000      -1.22048372 </v>
  </varray>
  <varray name="stress" >
   <v>      24.30319778       0.00000000      -0.00000000 </v>
   <v>       0.00000000      24.30319778      -0.00000000 </v>
   <v>       0.00000000      -0.00000000      25.59001429 </v>
  </varray>
  <energy>
   <i name="e_fr_energy">  -1124.58743609 </i>
   <i name="e_wo_entrp">  -1124.58743609 </i>
   <i name="e_0_energy">     -0.00000000 </i>
  </energy>
  <time name="totalsc">15520.9215530.66</time>
 </calculation>
 <calculation>
  <scstep>
   <time name="dav">  663.73  664.08</time>
   <time name="total">  677.72  678.13</time>
   <energy>
    <i name="alphaZ">   2663.50501976 </i>
    <i name="ewald"> 178067.66860692 </i>
    <i name="hartreedc">-259666.93886438 </i>
    <i name="XCdc">   2415.07912002 </i>
    <i name="pawpsdc">  56964.17255705 </i>
    <i name="pawaedc"> -55541.21930047 </i>
    <i name="eentropy">     -0.00000000 </i>
    <i name="bandstr"> -16257.84195384 </i>
    <i name="atom">  90297.61965915 </i>
    <i name="e_fr_energy">  -1057.95515580 </i>
    <i name="e_wo_entrp">  -1057.95515580 </i>
    <i name="e_0_energy">  -1057.95515580 </i>
   </energy>
  </scstep>
  <scstep>
   <time name="dav">  654.06  654.40</time>
   <time name="total">  668.06  668.46</time>
   <energy>
    <i name="e_fr_energy">  -1081.02718119 </i>
    <i name="e_wo_entrp">  -1081.02718119 </i>
    <i name="e_0_energy">  -1081.02718119 </i>
   </energy>
  </scstep>
  <scstep>
   <time name="dav">  736.55  736.94</time>
   <time name="total">  750.68  751.13</time>
   <energy>
    <i name="e_fr_energy">  -1081.10910768 </i>
    <i name="e_wo_entrp">  -1081.10910768 </i>
    <i name="e_0_energy">  -1081.10910768 </i>
   </energy>
  </scstep>
  <scstep>
   <time name="dav">  743.77  744.16</time>
   <time name="total">  757.88  758.33</time>
   <energy>
    <i name="e_fr_energy">  -1081.01693512 </i>
    <i name="e_wo_entrp">  -1081.01693512 </i>
    <i name="e_0_energy">  -1081.01693512 </i>
   </energy>
  </scstep>
  <scstep>
   <time name="dav">  729.43  729.82</time>
   <time name="total">  743.42  743.87</time>
   <energy>
    <i name="e_fr_energy">  -1080.99955928 </i>
    <i name="e_wo_entrp">  -1080.99955928 </i>
    <i name="e_0_energy">  -1080.99955928 </i>
   </energy>
  </scstep>
  <scstep>
   <time name="dav">  717.02  717.41</time>
   <time name="total">  731.02  731.46</time>
   <energy>
    <i name="e_fr_energy">  -1080.98725075 </i>
    <i name="e_wo_entrp">  -1080.98725075 </i>
    <i name="e_0_energy">  -1080.98725075 </i>
   </energy>
  </scstep>
  <scstep>
   <time name="dav">  739.00  739.39</time>
   <time name="total">  753.02  753.47</time>
   <energy>
    <i name="e_fr_energy">  -1080.98376071 </i>
    <i name="e_wo_entrp">  -1080.98376071 </i>
    <i name="e_0_energy">  -1080.98376071 </i>
   </energy>
  </scstep>
  <scstep>
   <time name="dav">  717.11  717.50</time>
   <time name="total">  731.12  731.56</time>
   <energy>
    <i name="e_fr_energy">  -1080.98336967 </i>
    <i name="e_wo_entrp">  -1080.98336967 </i>
    <i name="e_0_energy">  -1080.98336967 </i>
   </energy>
  </scstep>
  <scstep>
   <time name="dav">  726.83  727.22</time>
   <time name="total">  740.83  741.28</time>
   <energy>
    <i name="e_fr_energy">  -1080.98331252 </i>
    <i name="e_wo_entrp">  -1080.98331252 </i>
    <i name="e_0_energy">  -1080.98331252 </i>
   </energy>
  </scstep>
  <scstep>
   <time name="dav">  721.90  722.29</time>
   <time name="total">  736.00  736.44</time>
   <energy>
    <i name="e_fr_energy">  -1080.98328290 </i>
    <i name="e_wo_entrp">  -1080.98328290 </i>
    <i name="e_0_energy">  -1080.98328290 </i>
   </energy>
  </scstep>
  <scstep>
   <time name="dav">  674.02  674.38</time>
   <time name="total">  677.66  678.05</time>
   <energy>
    <i name="alphaZ">   2663.50501976 </i>
    <i name="ewald"> 178067.66860692 </i>
    <i name="hartreedc">-259690.09311039 </i>
    <i name="XCdc">   2415.48227772 </i>
    <i name="pawpsdc">  56552.15001686 </i>
    <i name="pawaedc"> -55125.06767013 </i>
    <i name="eentropy">     -0.00000000 </i>
    <i name="bandstr"> -16262.24807907 </i>
    <i name="atom">  90297.61965915 </i>
    <i name="e_fr_energy">  -1080.98327918 </i>
    <i name="e_wo_entrp">  -1080.98327918 </i>
    <i name="e_0_energy">  -1080.98327918 </i>
   </energy>
  </scstep>
  <structure>
   <crystal>
    <varray name="basis" >
     <v>      15.95157981       0.00000000       0.00000000 </v>
     <v>      -7.97578990      13.81447335       0.00000000 </v>
     <v>       0.00000000       0.00000000      28.24983972 </v>
    </varray>
    <i name="volume">   6225.21022374 </i>
    <varray name="rec_basis" >
     <v>       0.06268972       0.03619392       0.00000000 </v>
     <v>       0.00000000       0.07238785       0.00000000 </v>
     <v>       0.00000000       0.00000000       0.03539843 </v>
    </varray>
   </crystal>
   <varray name="positions" >
    <v>       0.13333340       0.06666660       0.05848152 </v>
    <v>       0.13333340       0.26666660       0.05848152 </v>
    <v>       0.13333340       0.46666660       0.05848152 </v>
    <v>       0.13333340       0.66666660       0.05848152 </v>
    <v>       0.13333340       0.86666660       0.05848152 </v>
    <v>       0.33333340       0.06666660       0.05848152 </v>
    <v>       0.33333340       0.26666660       0.05848152 </v>
    <v>       0.33333340       0.46666660       0.05848152 </v>
    <v>       0.33333340       0.66666660       0.05848152 </v>
    <v>       0.33333340       0.86666660       0.05848152 </v>
    <v>       0.53333340       0.06666660       0.05848152 </v>
    <v>       0.53333340       0.26666660       0.05848152 </v>
    <v>       0.53333340       0.46666660       0.05848152 </v>
    <v>       0.53333340       0.66666660       0.05848152 </v>
    <v>       0.53333340       0.86666660       0.05848152 </v>
    <v>       0.73333340       0.06666660       0.05848152 </v>
    <v>       0.73333340       0.26666660       0.05848152 </v>
    <v>       0.73333340       0.46666660       0.05848152 </v>
    <v>       0.73333340       0.66666660       0.05848152 </v>
    <v>       0.73333340       0.86666660       0.05848152 </v>
    <v>       0.93333340       0.06666660       0.05848152 </v>
    <v>       0.93333340       0.26666660       0.05848152 </v>
    <v>       0.93333340       0.46666660       0.05848152 </v>
    <v>       0.93333340       0.66666660       0.05848152 </v>
    <v>       0.93333340       0.86666660       0.05848152 </v>
    <v>       0.06666660       0.13333340       0.41305369 </v>
    <v>       0.06666660       0.33333340       0.41305369 </v>
    <v>       0.06666660       0.53333340       0.41305369 </v>
    <v>       0.06666660       0.73333340       0.41305369 </v>
    <v>       0.06666660       0.93333340       0.41305369 </v>
    <v>       0.26666660       0.13333340       0.41305369 </v>
    <v>       0.26666660       0.33333340       0.41305369 </v>
    <v>       0.26666660       0.53333340       0.41305369 </v>
    <v>       0.26666660       0.73333340       0.41305369 </v>
    <v>       0.26666660       0.93333340       0.41305369 </v>
    <v>       0.46666660       0.13333340       0.41305369 </v>
    <v>       0.46666660       0.33333340       0.41305369 </v>
    <v>       0.46666660       0.53333340       0.41305369 </v>
    <v>       0.46666660       0.73333340       0.41305369 </v>
    <v>       0.46666660       0.93333340       0.41305369 </v>
    <v>       0.66666660       0.13333340       0.41305369 </v>
    <v>       0.66666660       0.33333340       0.41305369 </v>
    <v>       0.66666660       0.53333340       0.41305369 </v>
    <v>       0.66666660       0.73333340       0.41305369 </v>
    <v>       0.66666660       0.93333340       0.41305369 </v>
    <v>       0.86666660       0.13333340       0.41305369 </v>
    <v>       0.86666660       0.33333340       0.41305369 </v>
    <v>       0.86666660       0.53333340       0.41305369 </v>
    <v>       0.86666660       0.73333340       0.41305369 </v>
    <v>       0.86666660       0.93333340       0.41305369 </v>
    <v>       0.06666660       0.13333340       0.11080014 </v>
    <v>       0.06666660       0.33333340       0.11080014 </v>
    <v>       0.06666660       0.53333340       0.11080014 </v>
    <v>       0.06666660       0.73333340       0.11080014 </v>
    <v>       0.06666660       0.93333340       0.11080014 </v>
    <v>       0.26666660       0.13333340       0.11080014 </v>
    <v>       0.26666660       0.33333340       0.11080014 </v>
    <v>       0.26666660       0.53333340       0.11080014 </v>
    <v>       0.26666660       0.73333340       0.11080014 </v>
    <v>       0.26666660       0.93333340       0.11080014 </v>
    <v>       0.46666660       0.13333340       0.11080014 </v>
    <v>       0.46666660       0.33333340       0.11080014 </v>
    <v>       0.46666660       0.53333340       0.11080014 </v>
    <v>       0.46666660       0.73333340       0.11080014 </v>
    <v>       0.46666660       0.93333340       0.11080014 </v>
    <v>       0.66666660       0.13333340       0.11080014 </v>
    <v>       0.66666660       0.33333340       0.11080014 </v>
    <v>       0.66666660       0.53333340       0.11080014 </v>
    <v>       0.66666660       0.73333340       0.11080014 </v>
    <v>       0.66666660       0.93333340       0.11080014 </v>
    <v>       0.86666660       0.13333340       0.11080014 </v>
    <v>       0.86666660       0.33333340       0.11080014 </v>
    <v>       0.86666660       0.53333340       0.11080014 </v>
    <v>       0.86666660       0.73333340       0.11080014 </v>
    <v>       0.86666660       0.93333340       0.11080014 </v>
    <v>       0.13333340       0.06666660       0.46746363 </v>
    <v>       0.13333340       0.26666660       0.46746363 </v>
    <v>       0.13333340       0.46666660       0.46746363 </v>
    <v>       0.13333340       0.66666660       0.46746363 </v>
    <v>       0.13333340       0.86666660       0.46746363 </v>
    <v>       0.33333340       0.06666660       0.46746363 </v>
    <v>       0.33333340       0.26666660       0.46746363 </v>
    <v>       0.33333340       0.46666660       0.46746363 </v>
    <v>       0.33333340       0.66666660       0.46746363 </v>
    <v>       0.33333340       0.86666660       0.46746363 </v>
    <v>       0.53333340       0.06666660       0.46746363 </v>
    <v>       0.53333340       0.26666660       0.46746363 </v>
    <v>       0.53333340       0.46666660       0.46746363 </v>
    <v>       0.53333340       0.66666660       0.46746363 </v>
    <v>       0.53333340       0.86666660       0.46746363 </v>
    <v>       0.73333340       0.06666660       0.46746363 </v>
    <v>       0.73333340       0.26666660       0.46746363 </v>
    <v>       0.73333340       0.46666660       0.46746363 </v>
    <v>       0.73333340       0.66666660       0.46746363 </v>
    <v>       0.73333340       0.86666660       0.46746363 </v>
    <v>       0.93333340       0.06666660       0.46746363 </v>
    <v>       0.93333340       0.26666660       0.46746363 </v>
    <v>       0.93333340       0.46666660       0.46746363 </v>
    <v>       0.93333340       0.66666660       0.46746363 </v>
    <v>       0.93333340       0.86666660       0.46746363 </v>
    <v>       0.06666660       0.13333340      -0.00308068 </v>
    <v>       0.06666660       0.33333340      -0.00308068 </v>
    <v>       0.06666660       0.53333340      -0.00308068 </v>
    <v>       0.06666660       0.73333340      -0.00308068 </v>
    <v>       0.06666660       0.93333340      -0.00308068 </v>
    <v>       0.26666660       0.13333340      -0.00308068 </v>
    <v>       0.26666660       0.33333340      -0.00308068 </v>
    <v>       0.26666660       0.53333340      -0.00308068 </v>
    <v>       0.26666660       0.73333340      -0.00308068 </v>
    <v>       0.26666660       0.93333340      -0.00308068 </v>
    <v>       0.46666660       0.13333340      -0.00308068 </v>
    <v>       0.46666660       0.33333340      -0.00308068 </v>
    <v>       0.46666660       0.53333340      -0.00308068 </v>
    <v>       0.46666660       0.73333340      -0.00308068 </v>
    <v>       0.46666660       0.93333340      -0.00308068 </v>
    <v>       0.66666660       0.13333340      -0.00308068 </v>
    <v>       0.66666660       0.33333340      -0.00308068 </v>
    <v>       0.66666660       0.53333340      -0.00308068 </v>
    <v>       0.66666660       0.73333340      -0.00308068 </v>
    <v>       0.66666660       0.93333340      -0.00308068 </v>
    <v>       0.86666660       0.13333340      -0.00308068 </v>
    <v>       0.86666660       0.33333340      -0.00308068 </v>
    <v>       0.86666660       0.53333340      -0.00308068 </v>
    <v>       0.86666660       0.73333340      -0.00308068 </v>
    <v>       0.86666660       0.93333340      -0.00308068 </v>
    <v>       0.13333340       0.06666660       0.35024769 </v>
    <v>       0.13333340       0.26666660       0.35024769 </v>
    <v>       0.13333340       0.46666660       0.35024769 </v>
    <v>       0.13333340       0.66666660       0.35024769 </v>
    <v>       0.13333340       0.86666660       0.35024769 </v>
    <v>       0.33333340       0.06666660       0.35024769 </v>
    <v>       0.33333340       0.26666660       0.35024769 </v>
    <v>       0.33333340       0.46666660       0.35024769 </v>
    <v>       0.33333340       0.66666660       0.35024769 </v>
    <v>       0.33333340       0.86666660       0.35024769 </v>
    <v>       0.53333340       0.06666660       0.35024769 </v>
    <v>       0.53333340       0.26666660       0.35024769 </v>
    <v>       0.53333340       0.46666660       0.35024769 </v>
    <v>       0.53333340       0.66666660       0.35024769 </v>
    <v>       0.53333340       0.86666660       0.35024769 </v>
    <v>       0.73333340       0.06666660       0.35024769 </v>
    <v>       0.73333340       0.26666660       0.35024769 </v>
    <v>       0.73333340       0.46666660       0.35024769 </v>
    <v>       0.73333340       0.66666660       0.35024769 </v>
    <v>       0.73333340       0.86666660       0.35024769 </v>
    <v>       0.93333340       0.06666660       0.35024769 </v>
    <v>       0.93333340       0.26666660       0.35024769 </v>
    <v>       0.93333340       0.46666660       0.35024769 </v>
    <v>       0.93333340       0.66666660       0.35024769 </v>
    <v>       0.93333340       0.86666660       0.35024769 </v>
   </varray>
  </structure>
  <varray name="forces" >
   <v>      -0.00000000       0.00000000      -1.27307566 </v>
   <v>       0.00000000       0.00000000      -1.27307566 </v>
   <v>       0.00000000       0.00000000      -1.27307566 </v>
   <v>       0.00000000      -0.00000000      -1.27307566 </v>
   <v>       0.00000000      -0.00000000      -1.27307566 </v>
   <v>      -0.00000000       0.00000000      -1.27307566 </v>
   <v>       0.00000000       0.00000000      -1.27307566 </v>
   <v>       0.00000000       0.00000000      -1.27307566 </v>
   <v>       0.00000000      -0.00000000      -1.27307566 </v>
   <v>       0.00000000      -0.00000000      -1.27307566 </v>
   <v>       0.00000000       0.00000000      -1.27307566 </v>
   <v>       0.00000000       0.00000000      -1.27307566 </v>
   <v>       0.00000000       0.00000000      -1.27307566 </v>
   <v>       0.00000000       0.00000000      -1.27307566 </v>
   <v>       0.00000000       0.00000000      -1.27307566 </v>
   <v>      -0.00000000       0.00000000      -1.27307566 </v>
   <v>       0.00000000       0.00000000      -1.27307566 </v>
   <v>       0.00000000       0.00000000      -1.27307566 </v>
   <v>       0.00000000      -0.00000000      -1.27307566 </v>
   <v>       0.00000000      -0.00000000      -1.27307566 </v>
   <v>       0.00000000      -0.00000000      -1.27307566 </v>
   <v>      -0.00000000       0.00000000      -1.27307566 </v>
   <v>       0.00000000       0.00000000      -1.27307566 </v>
   <v>       0.00000000      -0.00000000      -1.27307566 </v>
   <v>       0.00000000      -0.00000000      -1.27307566 </v>
   <v>       0.00000000       0.00000000      -0.86174228 </v>
   <v>       0.00000000      -0.00000000      -0.86174228 </v>
   <v>       0.00000000       0.00000000      -0.86174228 </v>
   <v>       0.00000000      -0.00000000      -0.86174228 </v>
   <v>       0.00000000      -0.00000000      -0.86174228 </v>
   <v>       0.00000000       0.00000000      -0.86174228 </v>
   <v>       0.00000000      -0.00000000      -0.86174228 </v>
   <v>       0.00000000       0.00000000      -0.86174228 </v>
   <v>       0.00000000      -0.00000000      -0.86174228 </v>
   <v>       0.00000000      -0.00000000      -0.86174228 </v>
   <v>       0.00000000      -0.00000000      -0.86174228 </v>
   <v>       0.00000000      -0.00000000      -0.86174228 </v>
   <v>       0.00000000       0.00000000      -0.86174228 </v>
   <v>       0.00000000       0.00000000      -0.86174228 </v>
   <v>       0.00000000       0.00000000      -0.86174228 </v>
   <v>       0.00000000       0.00000000      -0.86174228 </v>
   <v>       0.00000000      -0.00000000      -0.86174228 </v>
   <v>       0.00000000       0.00000000      -0.86174228 </v>
   <v>       0.00000000      -0.00000000      -0.86174228 </v>
   <v>       0.00000000       0.00000000      -0.86174228 </v>
   <v>       0.00000000      -0.00000000      -0.86174228 </v>
   <v>       0.00000000      -0.00000000      -0.86174228 </v>
   <v>       0.00000000       0.00000000      -0.86174228 </v>
   <v>       0.00000000       0.00000000      -0.86174228 </v>
   <v>       0.00000000      -0.00000000      -0.86174228 </v>
   <v>       0.00000000       0.00000000       1.22078680 </v>
   <v>       0.00000000      -0.00000000       1.22078680 </v>
   <v>      -0.00000000      -0.00000000       1.22078680 </v>
   <v>      -0.00000000       0.00000000       1.22078680 </v>
   <v>      -0.00000000       0.00000000       1.22078680 </v>
   <v>       0.00000000      -0.00000000       1.22078680 </v>
   <v>       0.00000000      -0.00000000       1.22078680 </v>
   <v>      -0.00000000      -0.00000000       1.22078680 </v>
[...]
       <r>   -24.4398     0.0000   150.0000 </r>
       <r>   -24.2788     0.0000   150.0000 </r>
       <r>   -24.1179     0.0000   150.0000 </r>
       <r>   -23.9570     0.0000   150.0000 </r>
       <r>   -23.7960     0.0000   150.0000 </r>
       <r>   -23.6351     0.0000   150.0000 </r>
       <r>   -23.4741     0.0000   150.0000 </r>
       <r>   -23.3132     0.0000   150.0000 </r>
       <r>   -23.1523     0.0000   150.0000 </r>
       <r>   -22.9913     0.0000   150.0000 </r>
       <r>   -22.8304     0.0000   150.0000 </r>
       <r>   -22.6694     0.0000   150.0000 </r>
       <r>   -22.5085     0.0000   150.0000 </r>
       <r>   -22.3476     0.0000   150.0000 </r>
       <r>   -22.1866     0.0000   150.0000 </r>
       <r>   -22.0257     0.0000   150.0000 </r>
       <r>   -21.8647     0.0000   150.0000 </r>
       <r>   -21.7038     0.0000   150.0000 </r>
       <r>   -21.5429     0.0000   150.0000 </r>
       <r>   -21.3819     0.0000   150.0000 </r>
       <r>   -21.2210     0.0000   150.0000 </r>
       <r>   -21.0600     0.0000   150.0000 </r>
       <r>   -20.8991     0.0000   150.0000 </r>
       <r>   -20.7382     0.0000   150.0000 </r>
       <r>   -20.5772     0.0000   150.0000 </r>
       <r>   -20.4163     0.0000   150.0000 </r>
       <r>   -20.2553     0.0000   150.0000 </r>
       <r>   -20.0944     0.0000   150.0000 </r>
       <r>   -19.9335     0.0000   150.0000 </r>
       <r>   -19.7725     0.0000   150.0000 </r>
       <r>   -19.6116     0.0000   150.0000 </r>
       <r>   -19.4506     0.0000   150.0000 </r>
       <r>   -19.2897     0.0000   150.0000 </r>
       <r>   -19.1288     0.0000   150.0000 </r>
       <r>   -18.9678     0.0000   150.0000 </r>
       <r>   -18.8069     0.0000   150.0000 </r>
       <r>   -18.6459     0.0000   150.0000 </r>
       <r>   -18.4850     0.0000   150.0000 </r>
       <r>   -18.3241     0.0000   150.0000 </r>
       <r>   -18.1631     0.0000   150.0000 </r>
       <r>   -18.0022     0.0000   150.0000 </r>
       <r>   -17.8413     0.0000   150.0000 </r>
       <r>   -17.6803     0.0000   150.0000 </r>
       <r>   -17.5194     0.0000   150.0000 </r>
       <r>   -17.3584     0.0000   150.0000 </r>
       <r>   -17.1975     0.0000   150.0000 </r>
       <r>   -17.0366     0.0000   150.0000 </r>
       <r>   -16.8756     0.0000   150.0000 </r>
       <r>   -16.7147     0.0000   150.0000 </r>
       <r>   -16.5537     0.0000   150.0000 </r>
       <r>   -16.3928     0.0000   150.0000 </r>
       <r>   -16.2319     0.0000   150.0000 </r>
       <r>   -16.0709     0.0000   150.0000 </r>
       <r>   -15.9100     0.0000   150.0000 </r>
       <r>   -15.7490     0.0000   150.0000 </r>
       <r>   -15.5881     0.0000   150.0000 </r>
       <r>   -15.4272     0.0000   150.0000 </r>
       <r>   -15.2662     0.0042   150.0007 </r>
       <r>   -15.1053     4.1762   150.6728 </r>
       <r>   -14.9443    10.7940   152.4100 </r>
       <r>   -14.7834    11.4926   154.2596 </r>
       <r>   -14.6225    15.3672   156.7328 </r>
       <r>   -14.4615     9.6291   158.2825 </r>
       <r>   -14.3006    15.9521   160.8498 </r>
       <r>   -14.1396    12.8732   162.9216 </r>
       <r>   -13.9787    14.8364   165.3094 </r>
       <r>   -13.8178    23.6654   169.1181 </r>
       <r>   -13.6568    30.3589   174.0040 </r>
       <r>   -13.4959    46.1648   181.4338 </r>
       <r>   -13.3349    52.1231   189.8224 </r>
       <r>   -13.1740    60.4517   199.5515 </r>
       <r>   -13.0131    89.4543   213.9482 </r>
       <r>   -12.8521    92.7958   228.8827 </r>
       <r>   -12.6912    80.3336   241.8116 </r>
       <r>   -12.5302    45.0402   249.0603 </r>
       <r>   -12.3693     5.8383   250.0000 </r>
       <r>   -12.2084     0.0003   250.0000 </r>
       <r>   -12.0474     0.0000   250.0000 </r>
       <r>   -11.8865     0.0000   250.0000 </r>
       <r>   -11.7255     0.0000   250.0000 </r>
       <r>   -11.5646     0.0000   250.0000 </r>
       <r>   -11.4037     0.0000   250.0000 </r>
       <r>   -11.2427     0.0000   250.0000 </r>
       <r>   -11.0818     0.0000   250.0000 </r>
       <r>   -10.9209     0.0000   250.0000 </r>
       <r>   -10.7599     0.0000   250.0000 </r>
       <r>   -10.5990     0.0000   250.0000 </r>
       <r>   -10.4380     0.0000   250.0000 </r>
       <r>   -10.2771     0.0000   250.0000 </r>
       <r>   -10.1162     0.0000   250.0000 </r>
       <r>    -9.9552     0.0000   250.0000 </r>
       <r>    -9.7943     0.0000   250.0000 </r>
       <r>    -9.6333     0.0000   250.0000 </r>
       <r>    -9.4724     0.0000   250.0000 </r>
       <r>    -9.3115     0.0000   250.0000 </r>
       <r>    -9.1505     0.0000   250.0000 </r>
       <r>    -8.9896     0.0000   250.0000 </r>
       <r>    -8.8286     0.0000   250.0000 </r>
       <r>    -8.6677     0.0000   250.0000 </r>
       <r>    -8.5068     0.0000   250.0000 </r>
       <r>    -8.3458     0.0000   250.0000 </r>
       <r>    -8.1849     0.0000   250.0000 </r>
       <r>    -8.0239     0.0000   250.0000 </r>
       <r>    -7.8630     0.0000   250.0000 </r>
       <r>    -7.7021     0.0000   250.0000 </r>
       <r>    -7.5411     0.0000   250.0000 </r>
       <r>    -7.3802     0.0000   250.0000 </r>
       <r>    -7.2192     0.0000   250.0000 </r>
       <r>    -7.0583     0.0000   250.0000 </r>
       <r>    -6.8974     0.0000   250.0000 </r>
       <r>    -6.7364     1.9049   250.3066 </r>
       <r>    -6.5755    16.5673   252.9729 </r>
       <r>    -6.4145    33.6892   258.3948 </r>
       <r>    -6.2536    23.8378   262.2313 </r>
       <r>    -6.0927    57.6497   271.5094 </r>
       <r>    -5.9317    44.1245   278.6108 </r>
       <r>    -5.7708    91.7491   293.3768 </r>
       <r>    -5.6098    88.5647   307.6304 </r>
       <r>    -5.4489    60.6848   317.3970 </r>
       <r>    -5.2880    27.3535   321.7992 </r>
       <r>    -5.1270    16.9982   324.5349 </r>
       <r>    -4.9661    20.8231   327.8861 </r>
       <r>    -4.8052    29.9468   332.7058 </r>
       <r>    -4.6442    87.0621   346.7175 </r>
       <r>    -4.4833   117.2820   365.5928 </r>
       <r>    -4.3223    72.8700   377.3205 </r>
       <r>    -4.1614    17.6132   380.1551 </r>
       <r>    -4.0005    59.4463   389.7224 </r>
       <r>    -3.8395    73.3805   401.5322 </r>
       <r>    -3.6786    77.0335   413.9299 </r>
       <r>    -3.5176    71.1094   425.3742 </r>
       <r>    -3.3567    57.2293   434.5847 </r>
       <r>    -3.1958    54.9131   443.4224 </r>
       <r>    -3.0348    38.5168   449.6213 </r>
       <r>    -2.8739    52.1795   458.0190 </r>
       <r>    -2.7129    62.8680   468.1369 </r>
       <r>    -2.5520    83.1892   481.5254 </r>
       <r>    -2.3911    87.5245   495.6115 </r>
       <r>    -2.2301    58.6142   505.0449 </r>
       <r>    -2.0692    67.0310   515.8328 </r>
       <r>    -1.9082    67.4158   526.6827 </r>
       <r>    -1.7473    69.9362   537.9381 </r>
       <r>    -1.5864    39.1399   544.2373 </r>
       <r>    -1.4254    64.3921   554.6005 </r>
       <r>    -1.2645    59.5516   564.1847 </r>
       <r>    -1.1035    54.3750   572.9358 </r>
       <r>    -0.9426    62.0765   582.9264 </r>
       <r>    -0.7817    50.5973   591.0695 </r>
       <r>    -0.6207    29.7016   595.8497 </r>
       <r>    -0.4598    16.2412   598.4635 </r>
       <r>    -0.2988     8.2353   599.7889 </r>
       <r>    -0.1379     1.3102   599.9998 </r>
       <r>     0.0230     0.0015   600.0000 </r>
       <r>     0.1840     0.0000   600.0000 </r>
       <r>     0.3449     0.0000   600.0000 </r>
       <r>     0.5059     0.0000   600.0000 </r>
       <r>     0.6668     0.0000   600.0000 </r>
       <r>     0.8277     1.0601   600.1706 </r>
       <r>     0.9887    21.0054   603.5512 </r>
       <r>     1.1496    40.7011   610.1016 </r>
       <r>     1.3105    49.2085   618.0212 </r>
       <r>     1.4715    33.5387   623.4189 </r>
       <r>     1.6324    61.6157   633.3353 </r>
       <r>     1.7934    83.2976   646.7412 </r>
       <r>     1.9543    90.1974   661.2575 </r>
       <r>     2.1152    72.9029   672.9905 </r>
       <r>     2.2762    61.2059   682.8409 </r>
       <r>     2.4371    74.7183   694.8660 </r>
       <r>     2.5981    82.3835   708.1248 </r>
       <r>     2.7590    69.9981   719.3903 </r>
       <r>     2.9199    71.0981   730.8328 </r>
       <r>     3.0809    74.0604   742.7520 </r>
       <r>     3.2418    37.8587   748.8450 </r>
       <r>     3.4028    81.1067   761.8982 </r>
       <r>     3.5637    44.7721   769.1038 </r>
       <r>     3.7246    42.7499   775.9840 </r>
       <r>     3.8856    13.9287   778.2257 </r>
       <r>     4.0465    22.7903   781.8935 </r>
       <r>     4.2075    39.7849   788.2965 </r>
       <r>     4.3684    43.0280   795.2214 </r>
       <r>     4.5293    20.2509   798.4805 </r>
       <r>     4.6903    24.1345   802.3647 </r>
       <r>     4.8512    17.2898   805.1473 </r>
       <r>     5.0122    24.6682   809.1174 </r>
       <r>     5.1731    22.1819   812.6874 </r>
       <r>     5.3340    19.8865   815.8879 </r>
       <r>     5.4950     0.6952   815.9998 </r>
       <r>     5.6559     0.0013   816.0000 </r>
       <r>     5.8169     0.0000   816.0000 </r>
       <r>     5.9778     0.0000   816.0000 </r>
       <r>     6.1387     0.0000   816.0000 </r>
       <r>     6.2997     0.0000   816.0000 </r>
       <r>     6.4606     0.0000   816.0000 </r>
       <r>     6.6216     0.0000   816.0000 </r>
       <r>     6.7825     0.0000   816.0000 </r>
       <r>     6.9434     0.0000   816.0000 </r>
       <r>     7.1044     0.0000   816.0000 </r>
       <r>     7.2653     0.0000   816.0000 </r>
       <r>     7.4263     0.0000   816.0000 </r>
       <r>     7.5872     0.0000   816.0000 </r>
      </set>
     </set>
    </array>
   </total>
  </dos>
 </calculation>
 <structure name="finalpos" >
  <crystal>
   <varray name="basis" >
    <v>      15.95157981       0.00000000       0.00000000 </v>
    <v>      -7.97578990      13.81447335       0.00000000 </v>
    <v>       0.00000000       0.00000000      28.24983972 </v>
   </varray>
   <i name="volume">   6225.21022374 </i>
   <varray name="rec_basis" >
    <v>       0.06268972       0.03619392       0.00000000 </v>
    <v>       0.00000000       0.07238785       0.00000000 </v>
    <v>       0.00000000       0.00000000       0.03539843 </v>
   </varray>
  </crystal>
  <varray name="positions" >
   <v>       0.13333340       0.06666660       0.05751465 </v>
   <v>       0.13333340       0.26666660       0.05751465 </v>
   <v>       0.13333340       0.46666660       0.05751465 </v>
   <v>       0.13333340       0.66666660       0.05751465 </v>
   <v>       0.13333340       0.86666660       0.05751465 </v>
   <v>       0.33333340       0.06666660       0.05751465 </v>
   <v>       0.33333340       0.26666660       0.05751465 </v>
   <v>       0.33333340       0.46666660       0.05751465 </v>
   <v>       0.33333340       0.66666660       0.05751465 </v>
   <v>       0.33333340       0.86666660       0.05751465 </v>
   <v>       0.53333340       0.06666660       0.05751465 </v>
   <v>       0.53333340       0.26666660       0.05751465 </v>
   <v>       0.53333340       0.46666660       0.05751465 </v>
   <v>       0.53333340       0.66666660       0.05751465 </v>
   <v>       0.53333340       0.86666660       0.05751465 </v>
   <v>       0.73333340       0.06666660       0.05751465 </v>
   <v>       0.73333340       0.26666660       0.05751465 </v>
   <v>       0.73333340       0.46666660       0.05751465 </v>
   <v>       0.73333340       0.66666660       0.05751465 </v>
   <v>       0.73333340       0.86666660       0.05751465 </v>
   <v>       0.93333340       0.06666660       0.05751465 </v>
   <v>       0.93333340       0.26666660       0.05751465 </v>
   <v>       0.93333340       0.46666660       0.05751465 </v>
   <v>       0.93333340       0.66666660       0.05751465 </v>
   <v>       0.93333340       0.86666660       0.05751465 </v>
   <v>       0.06666660       0.13333340       0.41234367 </v>
   <v>       0.06666660       0.33333340       0.41234367 </v>
   <v>       0.06666660       0.53333340       0.41234367 </v>
   <v>       0.06666660       0.73333340       0.41234367 </v>
   <v>       0.06666660       0.93333340       0.41234367 </v>
   <v>       0.26666660       0.13333340       0.41234367 </v>
   <v>       0.26666660       0.33333340       0.41234367 </v>
   <v>       0.26666660       0.53333340       0.41234367 </v>
   <v>       0.26666660       0.73333340       0.41234367 </v>
   <v>       0.26666660       0.93333340       0.41234367 </v>
   <v>       0.46666660       0.13333340       0.41234367 </v>
   <v>       0.46666660       0.33333340       0.41234367 </v>
   <v>       0.46666660       0.53333340       0.41234367 </v>
   <v>       0.46666660       0.73333340       0.41234367 </v>
   <v>       0.46666660       0.93333340       0.41234367 </v>
   <v>       0.66666660       0.13333340       0.41234367 </v>
   <v>       0.66666660       0.33333340       0.41234367 </v>
   <v>       0.66666660       0.53333340       0.41234367 </v>
   <v>       0.66666660       0.73333340       0.41234367 </v>
   <v>       0.66666660       0.93333340       0.41234367 </v>
   <v>       0.86666660       0.13333340       0.41234367 </v>
   <v>       0.86666660       0.33333340       0.41234367 </v>
   <v>       0.86666660       0.53333340       0.41234367 </v>
   <v>       0.86666660       0.73333340       0.41234367 </v>
   <v>       0.86666660       0.93333340       0.41234367 </v>
   <v>       0.06666660       0.13333340       0.11231144 </v>
   <v>       0.06666660       0.33333340       0.11231144 </v>
   <v>       0.06666660       0.53333340       0.11231144 </v>
   <v>       0.06666660       0.73333340       0.11231144 </v>
   <v>       0.06666660       0.93333340       0.11231144 </v>
   <v>       0.26666660       0.13333340       0.11231144 </v>
   <v>       0.26666660       0.33333340       0.11231144 </v>
   <v>       0.26666660       0.53333340       0.11231144 </v>
   <v>       0.26666660       0.73333340       0.11231144 </v>
   <v>       0.26666660       0.93333340       0.11231144 </v>
   <v>       0.46666660       0.13333340       0.11231144 </v>
   <v>       0.46666660       0.33333340       0.11231144 </v>
   <v>       0.46666660       0.53333340       0.11231144 </v>
   <v>       0.46666660       0.73333340       0.11231144 </v>
   <v>       0.46666660       0.93333340       0.11231144 </v>
   <v>       0.66666660       0.13333340       0.11231144 </v>
   <v>       0.66666660       0.33333340       0.11231144 </v>
   <v>       0.66666660       0.53333340       0.11231144 </v>
   <v>       0.66666660       0.73333340       0.11231144 </v>
   <v>       0.66666660       0.93333340       0.11231144 </v>
   <v>       0.86666660       0.13333340       0.11231144 </v>
   <v>       0.86666660       0.33333340       0.11231144 </v>
   <v>       0.86666660       0.53333340       0.11231144 </v>
   <v>       0.86666660       0.73333340       0.11231144 </v>
   <v>       0.86666660       0.93333340       0.11231144 </v>
   <v>       0.13333340       0.06666660       0.46749006 </v>
   <v>       0.13333340       0.26666660       0.46749006 </v>
   <v>       0.13333340       0.46666660       0.46749006 </v>
   <v>       0.13333340       0.66666660       0.46749006 </v>
   <v>       0.13333340       0.86666660       0.46749006 </v>
   <v>       0.33333340       0.06666660       0.46749006 </v>
   <v>       0.33333340       0.26666660       0.46749006 </v>
   <v>       0.33333340       0.46666660       0.46749006 </v>
   <v>       0.33333340       0.66666660       0.46749006 </v>
   <v>       0.33333340       0.86666660       0.46749006 </v>
   <v>       0.53333340       0.06666660       0.46749006 </v>
   <v>       0.53333340       0.26666660       0.46749006 </v>
   <v>       0.53333340       0.46666660       0.46749006 </v>
   <v>       0.53333340       0.66666660       0.46749006 </v>
   <v>       0.53333340       0.86666660       0.46749006 </v>
   <v>       0.73333340       0.06666660       0.46749006 </v>
   <v>       0.73333340       0.26666660       0.46749006 </v>
   <v>       0.73333340       0.46666660       0.46749006 </v>
   <v>       0.73333340       0.66666660       0.46749006 </v>
   <v>       0.73333340       0.86666660       0.46749006 </v>
   <v>       0.93333340       0.06666660       0.46749006 </v>
   <v>       0.93333340       0.26666660       0.46749006 </v>
   <v>       0.93333340       0.46666660       0.46749006 </v>
   <v>       0.93333340       0.66666660       0.46749006 </v>
   <v>       0.93333340       0.86666660       0.46749006 </v>
   <v>       0.06666660       0.13333340      -0.00358365 </v>
   <v>       0.06666660       0.33333340      -0.00358365 </v>
   <v>       0.06666660       0.53333340      -0.00358365 </v>
   <v>       0.06666660       0.73333340      -0.00358365 </v>
   <v>       0.06666660       0.93333340      -0.00358365 </v>
   <v>       0.26666660       0.13333340      -0.00358365 </v>
   <v>       0.26666660       0.33333340      -0.00358365 </v>
   <v>       0.26666660       0.53333340      -0.00358365 </v>
   <v>       0.26666660       0.73333340      -0.00358365 </v>
   <v>       0.26666660       0.93333340      -0.00358365 </v>
   <v>       0.46666660       0.13333340      -0.00358365 </v>
   <v>       0.46666660       0.33333340      -0.00358365 </v>
   <v>       0.46666660       0.53333340      -0.00358365 </v>
   <v>       0.46666660       0.73333340      -0.00358365 </v>
   <v>       0.46666660       0.93333340      -0.00358365 </v>
   <v>       0.66666660       0.13333340      -0.00358365 </v>
   <v>       0.66666660       0.33333340      -0.00358365 </v>
   <v>       0.66666660       0.53333340      -0.00358365 </v>
   <v>       0.66666660       0.73333340      -0.00358365 </v>
   <v>       0.66666660       0.93333340      -0.00358365 </v>
   <v>       0.86666660       0.13333340      -0.00358365 </v>
   <v>       0.86666660       0.33333340      -0.00358365 </v>
   <v>       0.86666660       0.53333340      -0.00358365 </v>
   <v>       0.86666660       0.73333340      -0.00358365 </v>
   <v>       0.86666660       0.93333340      -0.00358365 </v>
   <v>       0.13333340       0.06666660       0.35088983 </v>
   <v>       0.13333340       0.26666660       0.35088983 </v>
   <v>       0.13333340       0.46666660       0.35088983 </v>
   <v>       0.13333340       0.66666660       0.35088983 </v>
   <v>       0.13333340       0.86666660       0.35088983 </v>
   <v>       0.33333340       0.06666660       0.35088983 </v>
   <v>       0.33333340       0.26666660       0.35088983 </v>
   <v>       0.33333340       0.46666660       0.35088983 </v>
   <v>       0.33333340       0.66666660       0.35088983 </v>
   <v>       0.33333340       0.86666660       0.35088983 </v>
   <v>       0.53333340       0.06666660       0.35088983 </v>
   <v>       0.53333340       0.26666660       0.35088983 </v>
   <v>       0.53333340       0.46666660       0.35088983 </v>
   <v>       0.53333340       0.66666660       0.35088983 </v>
   <v>       0.53333340       0.86666660       0.35088983 </v>
   <v>       0.73333340       0.06666660       0.35088983 </v>
   <v>       0.73333340       0.26666660       0.35088983 </v>
   <v>       0.73333340       0.46666660       0.35088983 </v>
   <v>       0.73333340       0.66666660       0.35088983 </v>
   <v>       0.73333340       0.86666660       0.35088983 </v>
   <v>       0.93333340       0.06666660       0.35088983 </v>
   <v>       0.93333340       0.26666660       0.35088983 </v>
   <v>       0.93333340       0.46666660       0.35088983 </v>
   <v>       0.93333340       0.66666660       0.35088983 </v>
   <v>       0.93333340       0.86666660       0.35088983 </v>
  </varray>
 </structure>
</modeling>
