    3    3    1    1
  0.1010627E+03  0.3164379E-09  0.3164379E-09  0.3496268E-08  0.5000000E-15
  1.000000000000000E-004
  CAR 
 MoS2 Band + SOC (HR, N=120)             
     24    360    256
 
  0.0000000E+00  0.0000000E+00  0.0000000E+00  0.2777778E-02
    1      -41.940039   1.000000
    2      -41.940021   1.000000
    3      -39.594070   1.000000
    4      -39.594046   1.000000
    5      -39.433876   1.000000
    6      -39.433844   1.000000
    7      -19.587643   1.000000
    8      -19.587617   1.000000
    9      -18.257776   1.000000
   10      -18.257742   1.000000
   11      -11.109667   1.000000
   12      -11.109661   1.000000
   13       -8.076620   1.000000
   14       -8.076608   1.000000
   15       -8.011687   1.000000
   16       -8.011676   1.000000
   17       -7.218300   1.000000
   18       -7.218258   1.000000
   19       -6.948412   1.000000
   20       -6.948404   1.000000
   21       -6.863609   1.000000
   22       -6.863602   1.000000
   23       -5.462084   1.000000
   24       -5.462083   1.000000
   25       -2.638333   0.000000
   26       -2.638331   0.000000
   27       -2.559266   0.000000
   28       -2.559264   0.000000
   29       -2.356264   0.000000
   30       -2.356260   0.000000
   31       -2.354187   0.000000
   32       -2.354182   0.000000
   33        0.344565   0.000000
   34        0.344576   0.000000
   35        1.047740   0.000000
   36        1.047746   0.000000
   37        1.793124   0.000000
   38        1.793144   0.000000
   39        2.361252   0.000000
   40        2.361257   0.000000
   41        2.457385   0.000000
   42        2.457392   0.000000
   43        2.990642   0.000000
   44        2.990647   0.000000
   45        3.491866   0.000000
   46        3.491870   0.000000
   47        3.754918   0.000000
   48        3.754943   0.000000
   49        3.944403   0.000000
   50        3.944407   0.000000
   51        4.510919   0.000000
   52        4.510924   0.000000
   53        5.008735   0.000000
   54        5.008741   0.000000
   55        5.570654   0.000000
   56        5.570660   0.000000
   57        5.638570   0.000000
   58        5.638577   0.000000
   59        5.811667   0.000000
   60        5.811673   0.000000
   61        6.333271   0.000000
   62        6.333274   0.000000
   63        7.411426   0.000000
   64        7.411432   0.000000
   65        7.463564   0.000000
   66        7.463568   0.000000
   67        7.648502   0.000000
   68        7.648511   0.000000
   69        7.661436   0.000000
   70        7.661446   0.000000
   71        8.337902   0.000000
   72        8.337905   0.000000
   73        9.367954   0.000000
   74        9.367959   0.000000
   75       10.008926   0.000000
   76       10.008932   0.000000
   77       10.999760   0.000000
   78       10.999760   0.000000
   79       11.130215   0.000000
   80       11.130229   0.000000
   81       11.141814   0.000000
   82       11.141827   0.000000
   83       11.315828   0.000000
   84       11.315842   0.000000
   85       11.318445   0.000000
   86       11.318459   0.000000
   87       11.593332   0.000000
   88       11.593336   0.000000
   89       11.684513   0.000000
   90       11.684565   0.000000
   91       11.783188   0.000000
   92       11.783194   0.000000
   93       13.447633   0.000000
   94       13.447635   0.000000
   95       13.976668   0.000000
   96       13.976671   0.000000
   97       14.648177   0.000000
   98       14.648180   0.000000
   99       14.919593   0.000000
  100       14.919594   0.000000
  101       16.710900   0.000000
  102       16.710904   0.000000
  103       16.877434   0.000000
  104       16.877438   0.000000
  105       17.770697   0.000000
  106       17.770701   0.000000
  107       17.860276   0.000000
  108       17.860279   0.000000
  109       19.235863   0.000000
  110       19.235867   0.000000
  111       19.573704   0.000000
  112       19.573707   0.000000
  113       19.597733   0.000000
  114       19.597734   0.000000
  115       19.612229   0.000000
  116       19.612230   0.000000
  117       20.074857   0.000000
  118       20.074862   0.000000
  119       20.164108   0.000000
  120       20.164112   0.000000
  121       20.169142   0.000000
  122       20.169146   0.000000
  123       20.348651   0.000000
  124       20.348660   0.000000
  125       21.154811   0.000000
  126       21.154817   0.000000
  127       21.233351   0.000000
  128       21.233359   0.000000
  129       21.267153   0.000000
  130       21.267162   0.000000
  131       21.577799   0.000000
  132       21.577809   0.000000
  133       21.580503   0.000000
  134       21.580513   0.000000
  135       21.604828   0.000000
  136       21.604857   0.000000
  137       21.763177   0.000000
  138       21.763198   0.000000
  139       21.772578   0.000000
  140       21.772587   0.000000
  141       21.774204   0.000000
  142       21.774214   0.000000
  143       22.108567   0.000000
  144       22.108571   0.000000
  145       22.112976   0.000000
  146       22.112980   0.000000
  147       22.162859   0.000000
  148       22.162863   0.000000
  149       22.297135   0.000000
  150       22.297139   0.000000
  151       22.402875   0.000000
  152       22.402880   0.000000
  153       22.404820   0.000000
  154       22.404825   0.000000
  155       22.581615   0.000000
  156       22.581621   0.000000
  157       22.612458   0.000000
  158       22.612463   0.000000
  159       22.624435   0.000000
  160       22.624440   0.000000
  161       22.641531   0.000000
  162       22.641536   0.000000
  163       22.826740   0.000000
  164       22.826743   0.000000
  165       22.943142   0.000000
  166       22.943145   0.000000
  167       22.946797   0.000000
  168       22.946800   0.000000
  169       23.018262   0.000000
  170       23.018267   0.000000
  171       23.069948   0.000000
  172       23.069952   0.000000
  173       23.082990   0.000000
  174       23.082993   0.000000
  175       23.095882   0.000000
  176       23.095886   0.000000
  177       23.429316   0.000000
  178       23.429319   0.000000
  179       23.437735   0.000000
  180       23.437740   0.000000
  181       23.437962   0.000000
  182       23.437965   0.000000
  183       23.492973   0.000000
  184       23.492976   0.000000
  185       23.497441   0.000000
  186       23.497444   0.000000
  187       23.568843   0.000000
  188       23.568847   0.000000
  189       23.860975   0.000000
  190       23.860977   0.000000
  191       23.864857   0.000000
  192       23.864860   0.000000
  193       23.884811   0.000000
  194       23.884816   0.000000
  195       23.947155   0.000000
  196       23.947159   0.000000
  197       24.012318   0.000000
  198       24.012321   0.000000
  199       24.023451   0.000000
  200       24.023454   0.000000
  201       24.244894   0.000000
  202       24.244897   0.000000
  203       24.247043   0.000000
  204       24.247046   0.000000
  205       24.307003   0.000000
  206       24.307009   0.000000
  207       24.455452   0.000000
  208       24.455454   0.000000
  209       24.455983   0.000000
  210       24.455985   0.000000
  211       24.622983   0.000000
  212       24.622988   0.000000
  213       24.661010   0.000000
  214       24.661017   0.000000
  215       24.772776   0.000000
  216       24.772780   0.000000
  217       24.779089   0.000000
  218       24.779093   0.000000
  219       24.971464   0.000000
  220       24.971471   0.000000
  221       25.103663   0.000000
  222       25.103667   0.000000
  223       25.117329   0.000000
  224       25.117333   0.000000
  225       25.308517   0.000000
  226       25.308519   0.000000
  227       25.310721   0.000000
  228       25.310724   0.000000
  229       25.430303   0.000000
  230       25.430309   0.000000
  231       25.470524   0.000000
  232       25.470529   0.000000
  233       25.713352   0.000000
  234       25.713355   0.000000
  235       25.714783   0.000000
  236       25.714787   0.000000
  237       25.916041   0.000000
  238       25.916045   0.000000
  239       25.928161   0.000000
  240       25.928165   0.000000
  241       25.975969   0.000000
  242       25.975975   0.000000
  243       26.249808   0.000000
  244       26.249959   0.000000
  245       26.281105   0.000000
  246       26.281213   0.000000
  247       26.469930   0.000000
  248       26.471259   0.000000
  249       26.483836   0.000000
  250       26.484989   0.000000
  251       26.488557   0.000000
  252       26.492102   0.000000
  253       26.719041   0.000000
  254       26.720334   0.000000
  255       26.728292   0.000000
  256       26.743630   0.000000
 
  0.2801118E-02  0.2801118E-02  0.0000000E+00  0.2777778E-02
    1      -41.940064   1.000000
    2      -41.940045   1.000000
    3      -39.594080   1.000000
    4      -39.594056   1.000000
    5      -39.433940   1.000000
    6      -39.433907   1.000000
    7      -19.587278   1.000000
    8      -19.587256   1.000000
    9      -18.257636   1.000000
   10      -18.257584   1.000000
   11      -11.109249   1.000000
   12      -11.109240   1.000000
   13       -8.076855   1.000000
   14       -8.076833   1.000000
   15       -8.011912   1.000000
   16       -8.011908   1.000000
   17       -7.222134   1.000000
   18       -7.221978   1.000000
   19       -6.946966   1.000000
   20       -6.946734   1.000000
   21       -6.862523   1.000000
   22       -6.862498   1.000000
   23       -5.462252   1.000000
   24       -5.462205   1.000000
   25       -2.638335   0.000000
   26       -2.638270   0.000000
   27       -2.559300   0.000000
   28       -2.559277   0.000000
   29       -2.357306   0.000000
   30       -2.357016   0.000000
   31       -2.354947   0.000000
   32       -2.354667   0.000000
   33        0.345153   0.000000
   34        0.345413   0.000000
   35        1.049183   0.000000
   36        1.049427   0.000000
   37        1.793612   0.000000
   38        1.793639   0.000000
   39        2.361745   0.000000
   40        2.361755   0.000000
   41        2.457840   0.000000
   42        2.457848   0.000000
   43        2.991109   0.000000
   44        2.991113   0.000000
   45        3.492330   0.000000
   46        3.492333   0.000000
   47        3.756705   0.000000
   48        3.756726   0.000000
   49        3.944863   0.000000
   50        3.944867   0.000000
   51        4.511374   0.000000
   52        4.511381   0.000000
   53        5.009054   0.000000
   54        5.009072   0.000000
   55        5.570519   0.000000
   56        5.570542   0.000000
   57        5.638418   0.000000
   58        5.638451   0.000000
   59        5.812096   0.000000
   60        5.812131   0.000000
   61        6.334119   0.000000
   62        6.334135   0.000000
   63        7.411423   0.000000
   64        7.412099   0.000000
   65        7.463478   0.000000
   66        7.464237   0.000000
   67        7.646673   0.000000
   68        7.646722   0.000000
   69        7.660045   0.000000
   70        7.660090   0.000000
   71        8.337935   0.000000
   72        8.337949   0.000000
   73        9.368323   0.000000
   74        9.368337   0.000000
   75       10.009143   0.000000
   76       10.009153   0.000000
   77       11.003099   0.000000
   78       11.003148   0.000000
   79       11.128166   0.000000
   80       11.128969   0.000000
   81       11.140667   0.000000
   82       11.140834   0.000000
   83       11.313849   0.000000
   84       11.314430   0.000000
   85       11.317704   0.000000
   86       11.318572   0.000000
   87       11.594925   0.000000
   88       11.594946   0.000000
   89       11.684523   0.000000
   90       11.684574   0.000000
   91       11.784317   0.000000
   92       11.784328   0.000000
   93       13.448687   0.000000
   94       13.448694   0.000000
   95       13.977826   0.000000
   96       13.977851   0.000000
   97       14.651861   0.000000
   98       14.651896   0.000000
   99       14.919897   0.000000
  100       14.920113   0.000000
  101       16.711290   0.000000
  102       16.711392   0.000000
  103       16.876729   0.000000
  104       16.876838   0.000000
  105       17.770267   0.000000
  106       17.771356   0.000000
  107       17.860187   0.000000
  108       17.860233   0.000000
  109       19.236465   0.000000
  110       19.237034   0.000000
  111       19.537839   0.000000
  112       19.540701   0.000000
  113       19.595084   0.000000
  114       19.595865   0.000000
  115       19.608375   0.000000
  116       19.608808   0.000000
  117       20.076774   0.000000
  118       20.079948   0.000000
  119       20.128749   0.000000
  120       20.135738   0.000000
  121       20.171607   0.000000
  122       20.174375   0.000000
  123       20.404392   0.000000
  124       20.407403   0.000000
  125       21.111996   0.000000
  126       21.124857   0.000000
  127       21.236301   0.000000
  128       21.242625   0.000000
  129       21.273066   0.000000
  130       21.274731   0.000000
  131       21.468723   0.000000
  132       21.475849   0.000000
  133       21.550918   0.000000
  134       21.556357   0.000000
  135       21.671975   0.000000
  136       21.673036   0.000000
  137       21.696683   0.000000
  138       21.698158   0.000000
  139       21.793369   0.000000
  140       21.794006   0.000000
  141       21.859553   0.000000
  142       21.860966   0.000000
  143       22.039633   0.000000
  144       22.045565   0.000000
  145       22.105192   0.000000
  146       22.108864   0.000000
  147       22.196494   0.000000
  148       22.199725   0.000000
  149       22.308249   0.000000
  150       22.311052   0.000000
  151       22.367195   0.000000
  152       22.376372   0.000000
  153       22.396719   0.000000
  154       22.400212   0.000000
  155       22.549582   0.000000
  156       22.551144   0.000000
  157       22.608483   0.000000
  158       22.609914   0.000000
  159       22.649277   0.000000
  160       22.655066   0.000000
  161       22.731483   0.000000
  162       22.735399   0.000000
  163       22.812490   0.000000
  164       22.813200   0.000000
  165       22.873421   0.000000
  166       22.879866   0.000000
  167       22.891725   0.000000
  168       22.900887   0.000000
  169       22.979279   0.000000
  170       22.981733   0.000000
  171       23.080088   0.000000
  172       23.082723   0.000000
  173       23.155940   0.000000
  174       23.163385   0.000000
  175       23.190258   0.000000
  176       23.195519   0.000000
  177       23.304330   0.000000
  178       23.308086   0.000000
  179       23.341886   0.000000
  180       23.345400   0.000000
  181       23.448645   0.000000
  182       23.449186   0.000000
  183       23.505359   0.000000
  184       23.505796   0.000000
  185       23.604341   0.000000
  186       23.605534   0.000000
  187       23.660332   0.000000
  188       23.661235   0.000000
  189       23.745984   0.000000
  190       23.751444   0.000000
  191       23.793300   0.000000
  192       23.802596   0.000000
  193       23.889429   0.000000
  194       23.892065   0.000000
  195       23.962321   0.000000
  196       23.968883   0.000000
  197       24.070150   0.000000
  198       24.081176   0.000000
  199       24.122768   0.000000
  200       24.127309   0.000000
  201       24.127710   0.000000
  202       24.130608   0.000000
  203       24.211297   0.000000
  204       24.211814   0.000000
  205       24.382831   0.000000
  206       24.383057   0.000000
  207       24.420144   0.000000
  208       24.421184   0.000000
  209       24.500243   0.000000
  210       24.501014   0.000000
  211       24.606419   0.000000
  212       24.609161   0.000000
  213       24.693780   0.000000
  214       24.695006   0.000000
  215       24.742932   0.000000
  216       24.751474   0.000000
  217       24.783196   0.000000
  218       24.785959   0.000000
  219       24.946047   0.000000
  220       24.954715   0.000000
  221       25.125825   0.000000
  222       25.139071   0.000000
  223       25.169027   0.000000
  224       25.176986   0.000000
  225       25.216051   0.000000
  226       25.216762   0.000000
  227       25.294805   0.000000
  228       25.295205   0.000000
  229       25.472117   0.000000
  230       25.472890   0.000000
  231       25.512927   0.000000
  232       25.513924   0.000000
  233       25.679229   0.000000
  234       25.680361   0.000000
  235       25.730699   0.000000
  236       25.731087   0.000000
  237       25.888952   0.000000
  238       25.897040   0.000000
  239       25.906343   0.000000
  240       25.915349   0.000000
  241       26.029352   0.000000
  242       26.030791   0.000000
  243       26.251928   0.000000
  244       26.252373   0.000000
  245       26.271199   0.000000
  246       26.275269   0.000000
  247       26.409945   0.000000
  248       26.412478   0.000000
  249       26.485332   0.000000
  250       26.496554   0.000000
  251       26.589209   0.000000
  252       26.601735   0.000000
  253       26.645492   0.000000
  254       26.672370   0.000000
  255       26.713787   0.000000
  256       26.726467   0.000000
 
  0.5602235E-02  0.5602235E-02  0.0000000E+00  0.2777778E-02
    1      -41.940137   1.000000
    2      -41.940118   1.000000
    3      -39.594109   1.000000
    4      -39.594088   1.000000
    5      -39.434128   1.000000
    6      -39.434097   1.000000
    7      -19.586194   1.000000
    8      -19.586160   1.000000
    9      -18.257200   1.000000
   10      -18.257126   1.000000
   11      -11.107995   1.000000
   12      -11.107977   1.000000
   13       -8.077645   1.000000
   14       -8.077552   1.000000
   15       -8.012560   1.000000
   16       -8.012488   1.000000
   17       -7.233075   1.000000
   18       -7.232768   1.000000
   19       -6.943205   1.000000
   20       -6.942709   1.000000
   21       -6.859028   1.000000
   22       -6.858783   1.000000
   23       -5.462712   1.000000
   24       -5.462618   1.000000
   25       -2.638396   0.000000
   26       -2.638142   0.000000
   27       -2.559395   0.000000
   28       -2.559202   0.000000
   29       -2.360784   0.000000
   30       -2.359359   0.000000
   31       -2.357139   0.000000
   32       -2.355741   0.000000
   33        0.347150   0.000000
   34        0.347673   0.000000
   35        1.053749   0.000000
   36        1.054231   0.000000
   37        1.795081   0.000000
   38        1.795118   0.000000
   39        2.363225   0.000000
   40        2.363246   0.000000
   41        2.459207   0.000000
   42        2.459217   0.000000
   43        2.992507   0.000000
   44        2.992512   0.000000
   45        3.493721   0.000000
   46        3.493726   0.000000
   47        3.762057   0.000000
   48        3.762077   0.000000
   49        3.946242   0.000000
   50        3.946247   0.000000
   51        4.512742   0.000000
   52        4.512752   0.000000
   53        5.010018   0.000000
   54        5.010049   0.000000
   55        5.569772   0.000000
   56        5.569992   0.000000
   57        5.638229   0.000000
   58        5.638458   0.000000
   59        5.813407   0.000000
   60        5.813478   0.000000
   61        6.336656   0.000000
   62        6.336689   0.000000
   63        7.412018   0.000000
   64        7.413451   0.000000
   65        7.463884   0.000000
   66        7.465519   0.000000
   67        7.639120   0.000000
   68        7.639319   0.000000
   69        7.658029   0.000000
   70        7.658224   0.000000
   71        8.338046   0.000000
   72        8.338073   0.000000
   73        9.369432   0.000000
   74        9.369462   0.000000
   75       10.009797   0.000000
   76       10.009814   0.000000
   77       11.012475   0.000000
   78       11.012704   0.000000
   79       11.120576   0.000000
   80       11.122359   0.000000
   81       11.140085   0.000000
   82       11.140707   0.000000
   83       11.308381   0.000000
   84       11.311156   0.000000
   85       11.314969   0.000000
   86       11.318076   0.000000
   87       11.599630   0.000000
   88       11.599681   0.000000
   89       11.684550   0.000000
   90       11.684601   0.000000
   91       11.787693   0.000000
   92       11.787720   0.000000
   93       13.451855   0.000000
   94       13.451869   0.000000
   95       13.981274   0.000000
   96       13.981321   0.000000
   97       14.662925   0.000000
   98       14.663012   0.000000
   99       14.921017   0.000000
  100       14.921462   0.000000
  101       16.712551   0.000000
  102       16.712761   0.000000
  103       16.874714   0.000000
  104       16.874938   0.000000
  105       17.769729   0.000000
  106       17.772044   0.000000
  107       17.860100   0.000000
  108       17.860491   0.000000
  109       19.237240   0.000000
  110       19.238764   0.000000
  111       19.455746   0.000000
  112       19.460922   0.000000
  113       19.570941   0.000000
  114       19.573569   0.000000
  115       19.608022   0.000000
  116       19.608746   0.000000
  117       20.006550   0.000000
  118       20.008381   0.000000
  119       20.136128   0.000000
  120       20.140278   0.000000
  121       20.214683   0.000000
  122       20.218135   0.000000
  123       20.506239   0.000000
  124       20.510126   0.000000
  125       21.036802   0.000000
  126       21.053204   0.000000
  127       21.221541   0.000000
  128       21.228859   0.000000
  129       21.277390   0.000000
  130       21.281577   0.000000
  131       21.354833   0.000000
  132       21.370930   0.000000
  133       21.468976   0.000000
  134       21.479438   0.000000
  135       21.647249   0.000000
  136       21.648564   0.000000
  137       21.719224   0.000000
  138       21.719530   0.000000
  139       21.806080   0.000000
  140       21.809614   0.000000
  141       21.919224   0.000000
  142       21.921777   0.000000
  143       22.014294   0.000000
  144       22.014904   0.000000
  145       22.076342   0.000000
  146       22.077661   0.000000
  147       22.174768   0.000000
  148       22.180468   0.000000
  149       22.308391   0.000000
  150       22.316045   0.000000
  151       22.360684   0.000000
  152       22.366763   0.000000
  153       22.414154   0.000000
  154       22.420182   0.000000
  155       22.535539   0.000000
  156       22.536281   0.000000
  157       22.614688   0.000000
  158       22.620948   0.000000
  159       22.653097   0.000000
  160       22.657964   0.000000
  161       22.749794   0.000000
  162       22.752754   0.000000
  163       22.797411   0.000000
  164       22.797609   0.000000
  165       22.875087   0.000000
  166       22.881598   0.000000
  167       22.884558   0.000000
  168       22.889539   0.000000
  169       22.978077   0.000000
  170       22.979540   0.000000
  171       23.084883   0.000000
  172       23.086800   0.000000
  173       23.136873   0.000000
  174       23.140227   0.000000
  175       23.174191   0.000000
  176       23.176111   0.000000
  177       23.327420   0.000000
  178       23.334925   0.000000
  179       23.348089   0.000000
  180       23.355461   0.000000
  181       23.450194   0.000000
  182       23.450870   0.000000
  183       23.509340   0.000000
  184       23.511627   0.000000
  185       23.577470   0.000000
  186       23.583750   0.000000
  187       23.643843   0.000000
  188       23.650519   0.000000
  189       23.771723   0.000000
  190       23.773777   0.000000
  191       23.828936   0.000000
  192       23.832150   0.000000
  193       23.887978   0.000000
  194       23.889559   0.000000
  195       23.965696   0.000000
  196       23.968565   0.000000
  197       23.980508   0.000000
  198       23.984130   0.000000
  199       24.114368   0.000000
  200       24.114782   0.000000
  201       24.208060   0.000000
  202       24.215003   0.000000
  203       24.265363   0.000000
  204       24.269276   0.000000
  205       24.397832   0.000000
  206       24.398322   0.000000
  207       24.406103   0.000000
  208       24.406708   0.000000
  209       24.498356   0.000000
  210       24.505975   0.000000
  211       24.624635   0.000000
  212       24.625960   0.000000
  213       24.654955   0.000000
  214       24.668553   0.000000
  215       24.777374   0.000000
  216       24.780010   0.000000
  217       24.839927   0.000000
  218       24.840488   0.000000
  219       24.940694   0.000000
  220       24.954428   0.000000
  221       25.077026   0.000000
  222       25.077718   0.000000
  223       25.177308   0.000000
  224       25.188172   0.000000
  225       25.246701   0.000000
  226       25.247321   0.000000
  227       25.275868   0.000000
  228       25.276316   0.000000
  229       25.496525   0.000000
  230       25.503326   0.000000
  231       25.586209   0.000000
  232       25.586740   0.000000
  233       25.623890   0.000000
  234       25.624160   0.000000
  235       25.795580   0.000000
  236       25.796439   0.000000
  237       25.838297   0.000000
  238       25.844574   0.000000
  239       25.867879   0.000000
  240       25.882033   0.000000
  241       26.133345   0.000000
  242       26.133704   0.000000
  243       26.230473   0.000000
  244       26.244378   0.000000
  245       26.259373   0.000000
  246       26.259600   0.000000
  247       26.391553   0.000000
  248       26.393404   0.000000
  249       26.513941   0.000000
  250       26.516713   0.000000
  251       26.523360   0.000000
  252       26.538239   0.000000
  253       26.685770   0.000000
  254       26.686406   0.000000
  255       26.709433   0.000000
  256       26.715811   0.000000
 
  0.8403353E-02  0.8403353E-02  0.0000000E+00  0.2777778E-02
    1      -41.940259   1.000000
    2      -41.940239   1.000000
    3      -39.594160   1.000000
    4      -39.594139   1.000000
    5      -39.434442   1.000000
    6      -39.434412   1.000000
    7      -19.584388   1.000000
    8      -19.584335   1.000000
    9      -18.256467   1.000000
   10      -18.256370   1.000000
   11      -11.105904   1.000000
   12      -11.105876   1.000000
   13       -8.079218   1.000000
   14       -8.078932   1.000000
   15       -8.013452   1.000000
   16       -8.013186   1.000000
   17       -7.249948   1.000000
   18       -7.249521   1.000000
   19       -6.939140   1.000000
   20       -6.938156   1.000000
   21       -6.852399   1.000000
   22       -6.851620   1.000000
   23       -5.463467   1.000000
   24       -5.463326   1.000000
   25       -2.638780   0.000000
   26       -2.638019   0.000000
   27       -2.559437   0.000000
   28       -2.558793   0.000000
   29       -2.366612   0.000000
   30       -2.363964   0.000000
   31       -2.360044   0.000000
   32       -2.357466   0.000000
   33        0.350547   0.000000
   34        0.351328   0.000000
   35        1.061431   0.000000
   36        1.062147   0.000000
   37        1.797532   0.000000
   38        1.797581   0.000000
   39        2.365696   0.000000
   40        2.365726   0.000000
   41        2.461485   0.000000
   42        2.461497   0.000000
   43        2.994836   0.000000
   44        2.994844   0.000000
   45        3.496039   0.000000
   46        3.496046   0.000000
   47        3.770954   0.000000
   48        3.770973   0.000000
   49        3.948542   0.000000
   50        3.948548   0.000000
   51        4.515022   0.000000
   52        4.515035   0.000000
   53        5.011614   0.000000
   54        5.011659   0.000000
   55        5.567552   0.000000
   56        5.568279   0.000000
   57        5.638812   0.000000
   58        5.639540   0.000000
   59        5.815601   0.000000
   60        5.815705   0.000000
   61        6.340834   0.000000
   62        6.340885   0.000000
   63        7.413086   0.000000
   64        7.415466   0.000000
   65        7.464602   0.000000
   66        7.467393   0.000000
   67        7.624126   0.000000
   68        7.624510   0.000000
   69        7.657526   0.000000
   70        7.657877   0.000000
   71        8.338241   0.000000
   72        8.338281   0.000000
   73        9.371282   0.000000
   74        9.371327   0.000000
   75       10.010880   0.000000
   76       10.010913   0.000000
   77       11.024903   0.000000
   78       11.025820   0.000000
   79       11.108377   0.000000
   80       11.110870   0.000000
   81       11.142579   0.000000
   82       11.143482   0.000000
   83       11.299940   0.000000
   84       11.306145   0.000000
   85       11.310073   0.000000
   86       11.316679   0.000000
   87       11.607230   0.000000
   88       11.607331   0.000000
   89       11.684591   0.000000
   90       11.684642   0.000000
   91       11.793289   0.000000
   92       11.793344   0.000000
   93       13.457137   0.000000
   94       13.457162   0.000000
   95       13.986877   0.000000
   96       13.986944   0.000000
   97       14.681328   0.000000
   98       14.681498   0.000000
   99       14.922952   0.000000
  100       14.923658   0.000000
  101       16.714677   0.000000
  102       16.715002   0.000000
  103       16.871390   0.000000
  104       16.871748   0.000000
  105       17.768252   0.000000
  106       17.772090   0.000000
  107       17.860707   0.000000
  108       17.862003   0.000000
  109       19.228405   0.000000
  110       19.232823   0.000000
  111       19.361174   0.000000
  112       19.365888   0.000000
  113       19.523739   0.000000
  114       19.527852   0.000000
  115       19.610070   0.000000
  116       19.610662   0.000000
  117       19.924232   0.000000
  118       19.927993   0.000000
  119       20.133502   0.000000
  120       20.139030   0.000000
  121       20.294289   0.000000
  122       20.297561   0.000000
  123       20.609705   0.000000
  124       20.615163   0.000000
  125       20.952647   0.000000
  126       20.970807   0.000000
  127       21.149578   0.000000