       N       E                     dE             d eps       ncg     rms          rms(c)
DAV:   1    -0.158415895678E+02   -0.15842E+02   -0.11076E+02123840   0.147E+01
DAV:   2    -0.211903077842E+02   -0.53487E+01   -0.48578E+01145016   0.782E+00
DAV:   3    -0.213670446538E+02   -0.17674E+00   -0.17422E+00148600   0.131E+00
DAV:   4    -0.213690857173E+02   -0.20411E-02   -0.20401E-02142632   0.151E-01
DAV:   5    -0.213691336635E+02   -0.47946E-04   -0.47939E-04143768   0.217E-02
DAV:   6    -0.213691357141E+02   -0.20507E-05   -0.20503E-05143176   0.388E-03
DAV:   7    -0.213691358294E+02   -0.11529E-06   -0.11501E-06143256   0.793E-04
DAV:   8    -0.213691358367E+02   -0.72396E-08   -0.69718E-08125704   0.184E-04
   1 F= -.21369136E+02 E0= -.21369136E+02  d E =-.331467E-12  mag=    -0.0000
