       N       E                     dE             d eps       ncg     rms          rms(c)
DAV:   1     0.238186517909E+02    0.23819E+02   -0.11234E+03 78152   0.106E+02
DAV:   2    -0.205863111790E+02   -0.44405E+02   -0.41639E+02 80864   0.631E+01
DAV:   3    -0.220578633355E+02   -0.14716E+01   -0.14566E+01 89160   0.105E+01
DAV:   4    -0.220945715519E+02   -0.36708E-01   -0.36681E-01 86496   0.169E+00
DAV:   5    -0.220956763087E+02   -0.11048E-02   -0.11045E-02 93552   0.271E-01
DAV:   6    -0.220957159903E+02   -0.39682E-04   -0.39673E-04 99360   0.448E-02
DAV:   7    -0.220957166783E+02   -0.68800E-06   -0.68759E-06 96504   0.573E-03
DAV:   8    -0.220957167000E+02   -0.21688E-07   -0.21451E-07 98272   0.828E-04
DAV:   9    -0.220957167008E+02   -0.79490E-09   -0.56744E-09 80728   0.124E-04
   1 F= -.22095717E+02 E0= -.22095717E+02  d E =-.384640E-22  mag=     0.0000     0.0000     0.0000
