       N       E                     dE             d eps       ncg     rms          ort
DAV:   1     0.208348223063E+03    0.20835E+03   -0.10482E+04  5760   0.102E+03
DAV:   2     0.396749191069E+01   -0.20438E+03   -0.19425E+03  5760   0.233E+02
DAV:   3    -0.205752432729E+02   -0.24543E+02   -0.24039E+02  5760   0.768E+01
DAV:   4    -0.214954103854E+02   -0.92017E+00   -0.91652E+00  5760   0.175E+01
DAV:   5    -0.215231681012E+02   -0.27758E-01   -0.27748E-01  5760   0.298E+00
SDA:   6    -0.169030066086E+02    0.46202E+01   -0.27748E-01  5760   0.266E+02 0.000E+00
CGA:   7    -0.209916019906E+02   -0.40886E+01   -0.39345E+01  5760   0.270E+01-0.470E+00
CGA:   8    -0.214519986399E+02   -0.46040E+00   -0.46025E+00  5760   0.974E+00 0.166E-02
CGA:   9    -0.216370081622E+02   -0.18501E+00   -0.18500E+00  5760   0.352E+00 0.307E-02
CGA:  10    -0.216984783443E+02   -0.61470E-01   -0.61413E-01  5760   0.136E+00-0.811E-03
CGA:  11    -0.217268843854E+02   -0.28406E-01   -0.28406E-01  5760   0.381E-01 0.414E-04
CGA:  12    -0.217351793608E+02   -0.82950E-02   -0.82942E-02  5760   0.174E-01 0.264E-05
CGA:  13    -0.217394099549E+02   -0.42306E-02   -0.42303E-02  5760   0.681E-02-0.277E-04
CGA:  14    -0.217410052216E+02   -0.15953E-02   -0.15968E-02  5760   0.282E-02 0.349E-04
CGA:  15    -0.217416748482E+02   -0.66963E-03   -0.66709E-03  5760   0.101E-02 0.581E-04
CGA:  16    -0.217419809590E+02   -0.30611E-03   -0.30337E-03  5760   0.491E-03 0.230E-04
CGA:  17    -0.217421385979E+02   -0.15764E-03   -0.15647E-03  5760   0.226E-03 0.861E-05
CGA:  18    -0.217422173391E+02   -0.78741E-04   -0.78324E-04  5760   0.940E-04 0.262E-05
CGA:  19    -0.217422485367E+02   -0.31198E-04   -0.31180E-04  5760   0.347E-04 0.831E-07
CGA:  20    -0.217422602723E+02   -0.11736E-04   -0.11849E-04  5760   0.134E-04-0.981E-06
CGA:  21    -0.217422641513E+02   -0.38790E-05   -0.39213E-05  5760   0.677E-05-0.590E-06
CGA:  22    -0.217422656132E+02   -0.14619E-05   -0.14622E-05  5760   0.292E-05-0.546E-07
CGA:  23    -0.217422663578E+02   -0.74459E-06   -0.74108E-06  5760   0.835E-06 0.190E-06
CGA:  24    -0.217422666249E+02   -0.26706E-06   -0.25932E-06  5760   0.241E-06 0.151E-06
CGA:  25    -0.217422667042E+02   -0.79293E-07   -0.77867E-07  5760   0.987E-07 0.626E-07
   1 F= -.21742267E+02 E0= -.21742267E+02  d E =-.282840E-17  mag=     0.0000     0.0000     0.0000
