       N       E                     dE             d eps       ncg     rms          ort
DAV:   1     0.211504607039E+03    0.21150E+03   -0.10578E+04  5760   0.102E+03
DAV:   2     0.370633919192E+01   -0.20780E+03   -0.19769E+03  5760   0.238E+02
DAV:   3    -0.205030102237E+02   -0.24209E+02   -0.23715E+02  5760   0.773E+01
DAV:   4    -0.213915466585E+02   -0.88854E+00   -0.88511E+00  5760   0.173E+01
DAV:   5    -0.214166266178E+02   -0.25080E-01   -0.25069E-01  5760   0.284E+00
SDA:   6    -0.175387608790E+02    0.38779E+01   -0.25069E-01  5760   0.232E+02 0.000E+00
CGA:   7    -0.210459196858E+02   -0.35072E+01   -0.33845E+01  5760   0.251E+01-0.327E+00
CGA:   8    -0.214715162096E+02   -0.42560E+00   -0.42527E+00  5760   0.875E+00-0.116E-02
CGA:   9    -0.216478030052E+02   -0.17629E+00   -0.17629E+00  5760   0.330E+00 0.287E-02
CGA:  10    -0.217036334630E+02   -0.55830E-01   -0.55748E-01  5760   0.128E+00-0.790E-03
CGA:  11    -0.217315101225E+02   -0.27877E-01   -0.27875E-01  5760   0.369E-01-0.214E-05
CGA:  12    -0.217392964990E+02   -0.77864E-02   -0.77870E-02  5760   0.162E-01-0.517E-04
CGA:  13    -0.217433407872E+02   -0.40443E-02   -0.40437E-02  5760   0.624E-02-0.750E-04
CGA:  14    -0.217447614879E+02   -0.14207E-02   -0.14165E-02  5760   0.253E-02 0.122E-03
CGA:  15    -0.217453796324E+02   -0.61814E-03   -0.61601E-03  5760   0.926E-03 0.455E-04
CGA:  16    -0.217456487594E+02   -0.26913E-03   -0.26735E-03  5760   0.455E-03 0.171E-04
CGA:  17    -0.217457940612E+02   -0.14530E-03   -0.14442E-03  5760   0.210E-03 0.633E-05
CGA:  18    -0.217458634950E+02   -0.69434E-04   -0.69222E-04  5760   0.929E-04 0.145E-05
CGA:  19    -0.217458907885E+02   -0.27294E-04   -0.27291E-04  5760   0.418E-04-0.466E-07
CGA:  20    -0.217459009428E+02   -0.10154E-04   -0.10166E-04  5760   0.190E-04-0.512E-06
CGA:  21    -0.217459058814E+02   -0.49386E-05   -0.49617E-05  5760   0.679E-05-0.542E-06
CGA:  22    -0.217459079220E+02   -0.20406E-05   -0.20560E-05  5760   0.277E-05-0.167E-06
CGA:  23    -0.217459086527E+02   -0.73068E-06   -0.72659E-06  5760   0.116E-05 0.124E-06
CGA:  24    -0.217459089370E+02   -0.28426E-06   -0.28452E-06  5760   0.404E-06 0.111E-06
CGA:  25    -0.217459090533E+02   -0.11632E-06   -0.11530E-06  5760   0.124E-06 0.620E-07
CGA:  26    -0.217459090969E+02   -0.43626E-07   -0.42865E-07  5760   0.442E-07 0.236E-07
   1 F= -.21745909E+02 E0= -.21745909E+02  d E =-.158118E-14  mag=     0.0000     0.0000     0.0000
