    3    3    1    1
  0.1010627E+03  0.3164379E-09  0.3164379E-09  0.3496268E-08  0.5000000E-15
  1.000000000000000E-004
  CAR 
 MoS2 SOC SCF (warm, 12x12x1)            
     24    144     40
 
  0.0000000E+00  0.0000000E+00  0.0000000E+00  0.6944444E-02
    1      -41.944509   1.000000
    2      -41.944490   1.000000
    3      -39.589594   1.000000
    4      -39.589568   1.000000
    5      -39.429289   1.000000
    6      -39.429254   1.000000
    7      -19.586193   1.000000
    8      -19.586221   1.000000
    9      -18.256585   1.000000
   10      -18.256588   1.000000
   11      -11.107806   1.000000
   12      -11.107812   1.000000
   13       -8.074186   1.000000
   14       -8.074173   1.000000
   15       -8.009320   1.000000
   16       -8.009308   1.000000
   17       -7.217490   1.000000
   18       -7.217444   1.000000
   19       -6.948783   1.000000
   20       -6.948775   1.000000
   21       -6.863964   1.000000
   22       -6.863956   1.000000
   23       -5.457965   1.000000
   24       -5.457965   1.000000
   25       -2.638705   0.000000
   26       -2.638703   0.000000
   27       -2.559579   0.000000
   28       -2.559577   0.000000
   29       -2.355602   0.000000
   30       -2.355607   0.000000
   31       -2.353552   0.000000
   32       -2.353558   0.000000
   33        0.344276   0.000000
   34        0.344296   0.000000
   35        1.048632   0.000000
   36        1.048643   0.000000
   37        1.793078   0.000000
   38        1.878868   0.000000
   39        2.365283   0.000000
   40        3.219250   0.000000
 
  0.8333333E-01  0.0000000E+00  0.0000000E+00  0.6944444E-02
    1      -41.951595   1.000000
    2      -41.951560   1.000000
    3      -39.592777   1.000000
    4      -39.592776   1.000000
    5      -39.447084   1.000000
    6      -39.447049   1.000000
    7      -19.480556   1.000000
    8      -19.480211   1.000000
    9      -18.213406   1.000000
   10      -18.212955   1.000000
   11      -10.988071   1.000000
   12      -10.987910   1.000000
   13       -8.275177   1.000000
   14       -8.275151   1.000000
   15       -7.929929   1.000000
   16       -7.929734   1.000000
   17       -7.703282   1.000000
   18       -7.702784   1.000000
   19       -7.074227   1.000000
   20       -7.073869   1.000000
   21       -6.583277   1.000000
   22       -6.582146   1.000000
   23       -5.509490   1.000000
   24       -5.508681   1.000000
   25       -2.744716   0.000000
   26       -2.740407   0.000000
   27       -2.638471   0.000000
   28       -2.633863   0.000000
   29       -2.483968   0.000000
   30       -2.480956   0.000000
   31       -2.401884   0.000000
   32       -2.398660   0.000000
   33        0.521121   0.000000
   34        0.523943   0.000000
   35        1.479277   0.000000
   36        1.482297   0.000000
   37        1.940664   0.000000
   38        1.990091   0.000000
   39        2.510857   0.000000
   40        2.757655   0.000000
 
  0.1666667E+00  0.0000000E+00  0.0000000E+00  0.6944444E-02
    1      -41.971465   1.000000
    2      -41.971418   1.000000
    3      -39.605545   1.000000
    4      -39.605569   1.000000
    5      -39.490427   1.000000
    6      -39.490395   1.000000
    7      -19.179856   1.000000
    8      -19.179127   1.000000
    9      -18.090264   1.000000
   10      -18.089397   1.000000
   11      -10.687127   1.000000
   12      -10.686841   1.000000
   13       -8.803679   1.000000
   14       -8.803074   1.000000
   15       -8.363182   1.000000
   16       -8.362295   1.000000
   17       -7.623993   1.000000
   18       -7.622339   1.000000
   19       -7.465695   1.000000
   20       -7.463796   1.000000
   21       -6.503324   1.000000
   22       -6.502011   1.000000
   23       -5.741657   1.000000
   24       -5.740407   1.000000
   25       -3.091674   0.000000
   26       -3.090502   0.000000
   27       -2.790800   0.000000
   28       -2.789959   0.000000
   29       -2.740360   0.000000
   30       -2.739785   0.000000
   31       -2.001958   0.000000
   32       -2.001295   0.000000
   33        0.934347   0.000000
   34        0.936637   0.000000
   35        2.236155   0.000000
   36        2.237145   0.000000
   37        2.451592   0.000000
   38        2.456909   0.000000
   39        3.043586   0.000000
   40        3.230488   0.000000
 
  0.2500000E+00  0.0000000E+00  0.0000000E+00  0.6944444E-02
    1      -41.999826   1.000000
    2      -41.999774   1.000000
    3      -39.639279   1.000000
    4      -39.639314   1.000000
    5      -39.530457   1.000000
    6      -39.530437   1.000000
    7      -18.734644   1.000000
    8      -18.733500   1.000000
    9      -17.909040   1.000000
   10      -17.907760   1.000000
   11      -10.470350   1.000000
   12      -10.470103   1.000000
   13       -9.259515   1.000000
   14       -9.256924   1.000000
   15       -9.031995   1.000000
   16       -9.029215   1.000000
   17       -7.910274   1.000000
   18       -7.909897   1.000000
   19       -7.190940   1.000000
   20       -7.190277   1.000000
   21       -6.760927   1.000000
   22       -6.760202   1.000000
   23       -6.171222   1.000000
   24       -6.170400   1.000000
   25       -3.232157   0.000000
   26       -3.231617   0.000000
   27       -3.019325   0.000000
   28       -3.018716   0.000000
   29       -2.447049   0.000000
   30       -2.446847   0.000000
   31       -1.581825   0.000000
   32       -1.581379   0.000000
   33        1.512051   0.000000
   34        1.513774   0.000000
   35        2.699115   0.000000
   36        2.704818   0.000000
   37        3.080815   0.000000
   38        3.163048   0.000000
   39        3.499129   0.000000
   40        3.872960   0.000000
 
  0.3333333E+00  0.2775558E-16  0.0000000E+00  0.6944444E-02
    1      -42.029605   1.000000
    2      -42.029556   1.000000
    3      -39.691852   1.000000
    4      -39.691866   1.000000
    5      -39.548416   1.000000
    6      -39.548400   1.000000
    7      -18.234621   1.000000
    8      -18.233030   1.000000
    9      -17.709441   1.000000
   10      -17.707747   1.000000
   11      -10.715807   1.000000
   12      -10.715830   1.000000
   13       -9.654233   1.000000
   14       -9.651831   1.000000
   15       -9.356722   1.000000
   16       -9.353938   1.000000
   17       -8.281528   1.000000
   18       -8.281461   1.000000
   19       -7.080569   1.000000
   20       -7.080187   1.000000
   21       -6.756061   1.000000
   22       -6.755950   1.000000
   23       -6.413305   1.000000
   24       -6.413033   1.000000
   25       -3.180287   0.000000
   26       -3.180161   0.000000
   27       -3.046888   0.000000
   28       -3.046418   0.000000
   29       -1.948066   0.000000
   30       -1.947937   0.000000
   31       -1.278614   0.000000
   32       -1.278249   0.000000
   33        2.093354   0.000000
   34        2.094686   0.000000
   35        2.515559   0.000000
   36        2.523138   0.000000
   37        2.803577   0.000000
   38        2.806529   0.000000
   39        3.435739   0.000000
   40        3.467243   0.000000
 
  0.4166667E+00  0.0000000E+00  0.0000000E+00  0.6944444E-02
    1      -42.052299   1.000000
    2      -42.052262   1.000000
    3      -39.735662   1.000000
    4      -39.735651   1.000000
    5      -39.554229   1.000000
    6      -39.554213   1.000000
    7      -17.817708   1.000000
    8      -17.815907   1.000000
    9      -17.548522   1.000000
   10      -17.546653   1.000000
   11      -11.096914   1.000000
   12      -11.096736   1.000000
   13      -10.105343   1.000000
   14      -10.104782   1.000000
   15       -9.464397   1.000000
   16       -9.463505   1.000000
   17       -8.522481   1.000000
   18       -8.522502   1.000000
   19       -7.276250   1.000000
   20       -7.276204   1.000000
   21       -6.463825   1.000000
   22       -6.463733   1.000000
   23       -6.232266   1.000000
   24       -6.232138   1.000000
   25       -3.170772   0.000000
   26       -3.170728   0.000000
   27       -2.772624   0.000000
   28       -2.771999   0.000000
   29       -1.578423   0.000000
   30       -1.577955   0.000000
   31       -1.114235   0.000000
   32       -1.113993   0.000000
   33        1.335837   0.000000
   34        1.335948   0.000000
   35        2.490340   0.000000
   36        2.502825   0.000000
   37        2.789079   0.000000
   38        2.799386   0.000000
   39        3.763224   0.000000
   40        4.180417   0.000000
 
  0.5000000E+00  0.0000000E+00  0.0000000E+00  0.6944444E-02
    1      -42.060789   1.000000
    2      -42.060767   1.000000
    3      -39.752091   1.000000
    4      -39.752053   1.000000
    5      -39.555553   1.000000
    6      -39.555536   1.000000
    7      -17.649351   1.000000
    8      -17.649318   1.000000
    9      -17.484823   1.000000
   10      -17.484790   1.000000
   11      -11.260377   1.000000
   12      -11.260386   1.000000
   13      -10.272650   1.000000
   14      -10.272666   1.000000
   15       -9.544452   1.000000
   16       -9.544459   1.000000
   17       -8.605479   1.000000
   18       -8.605471   1.000000
   19       -7.339749   1.000000
   20       -7.339782   1.000000
   21       -6.360701   1.000000
   22       -6.360727   1.000000
   23       -6.064798   1.000000
   24       -6.064792   1.000000
   25       -3.138416   0.000000
   26       -3.138363   0.000000
   27       -2.612620   0.000000
   28       -2.612589   0.000000
   29       -1.457834   0.000000
   30       -1.457823   0.000000
   31       -1.064168   0.000000
   32       -1.064155   0.000000
   33        0.807860   0.000000
   34        0.807867   0.000000
   35        2.546611   0.000000
   36        2.546599   0.000000
   37        2.995854   0.000000
   38        2.995857   0.000000
   39        3.813121   0.000000
   40        4.583347   0.000000
 
 -0.4166667E+00  0.0000000E+00  0.0000000E+00  0.6944444E-02
    1      -42.052285   1.000000
    2      -42.052276   1.000000
    3      -39.735690   1.000000
    4      -39.735623   1.000000
    5      -39.554232   1.000000
    6      -39.554211   1.000000
    7      -17.817735   1.000000
    8      -17.815880   1.000000
    9      -17.548494   1.000000
   10      -17.546681   1.000000
   11      -11.096920   1.000000
   12      -11.096731   1.000000
   13      -10.105332   1.000000
   14      -10.104793   1.000000
   15       -9.464406   1.000000
   16       -9.463497   1.000000
   17       -8.522520   1.000000
   18       -8.522463   1.000000
   19       -7.276228   1.000000
   20       -7.276226   1.000000
   21       -6.463839   1.000000
   22       -6.463718   1.000000
   23       -6.232196   1.000000
   24       -6.232208   1.000000
   25       -3.170879   0.000000
   26       -3.170621   0.000000
   27       -2.772648   0.000000
   28       -2.771975   0.000000
   29       -1.578406   0.000000
   30       -1.577972   0.000000
   31       -1.114201   0.000000
   32       -1.114027   0.000000
   33        1.335890   0.000000
   34        1.335895   0.000000
   35        2.490333   0.000000
   36        2.502833   0.000000
   37        2.789079   0.000000
   38        2.799385   0.000000
   39        3.746555   0.000000
   40        4.518886   0.000000
 
 -0.3333333E+00 -0.2775558E-16  0.0000000E+00  0.6944444E-02
    1      -42.029581   1.000000
    2      -42.029580   1.000000
    3      -39.691910   1.000000
    4      -39.691809   1.000000
    5      -39.548425   1.000000
    6      -39.548391   1.000000
    7      -18.234647   1.000000
    8      -18.233005   1.000000
    9      -17.709412   1.000000
   10      -17.707775   1.000000
   11      -10.715847   1.000000
   12      -10.715789   1.000000
   13       -9.654223   1.000000
   14       -9.651840   1.000000
   15       -9.356735   1.000000
   16       -9.353925   1.000000
   17       -8.281569   1.000000
   18       -8.281420   1.000000
   19       -7.080539   1.000000
   20       -7.080217   1.000000
   21       -6.756053   1.000000
   22       -6.755958   1.000000
   23       -6.413256   1.000000
   24       -6.413082   1.000000
   25       -3.180344   0.000000
   26       -3.180104   0.000000
   27       -3.046902   0.000000
   28       -3.046404   0.000000
   29       -1.947994   0.000000
   30       -1.948008   0.000000
   31       -1.278595   0.000000
   32       -1.278268   0.000000
   33        2.093348   0.000000
   34        2.094692   0.000000
   35        2.515558   0.000000
   36        2.523140   0.000000
   37        2.803572   0.000000
   38        2.806533   0.000000
   39        3.433107   0.000000
   40        3.457047   0.000000
 
 -0.2500000E+00  0.0000000E+00  0.0000000E+00  0.6944444E-02
    1      -41.999799   1.000000
    2      -41.999801   1.000000
    3      -39.639359   1.000000
    4      -39.639235   1.000000
    5      -39.530471   1.000000
    6      -39.530422   1.000000
    7      -18.734669   1.000000
    8      -18.733476   1.000000
    9      -17.909011   1.000000
   10      -17.907789   1.000000
   11      -10.470348   1.000000
   12      -10.470105   1.000000
   13       -9.259512   1.000000
   14       -9.256927   1.000000
   15       -9.032002   1.000000
   16       -9.029208   1.000000
   17       -7.910286   1.000000
   18       -7.909884   1.000000
   19       -7.190933   1.000000
   20       -7.190283   1.000000
   21       -6.760892   1.000000
   22       -6.760237   1.000000
   23       -6.171209   1.000000
   24       -6.170413   1.000000
   25       -3.232167   0.000000
   26       -3.231607   0.000000
   27       -3.019338   0.000000
   28       -3.018703   0.000000
   29       -2.447093   0.000000
   30       -2.446804   0.000000
   31       -1.581812   0.000000
   32       -1.581392   0.000000
   33        1.512028   0.000000
   34        1.513797   0.000000
   35        2.699215   0.000000
   36        2.704798   0.000000
   37        3.073180   0.000000
   38        3.180432   0.000000
   39        3.570386   0.000000
   40        3.774286   0.000000
 
 -0.1666667E+00  0.0000000E+00  0.0000000E+00  0.6944444E-02
    1      -41.971441   1.000000
    2      -41.971442   1.000000
    3      -39.605606   1.000000
    4      -39.605507   1.000000
    5      -39.490432   1.000000
    6      -39.490391   1.000000
    7      -19.179880   1.000000
    8      -19.179104   1.000000
    9      -18.090235   1.000000
   10      -18.089427   1.000000
   11      -10.687130   1.000000
   12      -10.686839   1.000000
   13       -8.803692   1.000000
   14       -8.803061   1.000000
   15       -8.363189   1.000000
   16       -8.362289   1.000000
   17       -7.624006   1.000000
   18       -7.622327   1.000000
   19       -7.465686   1.000000
   20       -7.463806   1.000000
   21       -6.503292   1.000000
   22       -6.502043   1.000000
   23       -5.741652   1.000000
   24       -5.740412   1.000000
   25       -3.091677   0.000000
   26       -3.090499   0.000000
   27       -2.790786   0.000000
   28       -2.789973   0.000000
   29       -2.740358   0.000000
   30       -2.739787   0.000000
   31       -2.001950   0.000000
   32       -2.001303   0.000000
   33        0.934323   0.000000
   34        0.936660   0.000000
   35        2.236467   0.000000
   36        2.236856   0.000000
   37        2.451777   0.000000
   38        2.458757   0.000000
   39        3.043161   0.000000
   40        3.122934   0.000000
 
 -0.8333333E-01  0.0000000E+00  0.0000000E+00  0.6944444E-02
    1      -41.951580   1.000000
    2      -41.951575   1.000000
    3      -39.592805   1.000000
    4      -39.592747   1.000000
    5      -39.447085   1.000000
    6      -39.447049   1.000000
    7      -19.480578   1.000000
    8      -19.480188   1.000000
    9      -18.213376   1.000000
   10      -18.212985   1.000000
   11      -10.988062   1.000000
   12      -10.987919   1.000000
   13       -8.275246   1.000000
   14       -8.275082   1.000000
   15       -7.929968   1.000000
   16       -7.929694   1.000000
   17       -7.703294   1.000000
   18       -7.702772   1.000000
   19       -7.074209   1.000000
   20       -7.073887   1.000000
   21       -6.583259   1.000000
   22       -6.582163   1.000000
   23       -5.509488   1.000000
   24       -5.508682   1.000000
   25       -2.744722   0.000000
   26       -2.740399   0.000000
   27       -2.638474   0.000000
   28       -2.633860   0.000000
   29       -2.483964   0.000000
   30       -2.480961   0.000000
   31       -2.401881   0.000000
   32       -2.398662   0.000000
   33        0.521100   0.000000
   34        0.523965   0.000000
   35        1.479286   0.000000
   36        1.482289   0.000000
   37        1.940962   0.000000
   38        2.008173   0.000000
   39        2.510834   0.000000
   40        3.014728   0.000000
 
  0.0000000E+00  0.8333333E-01  0.0000000E+00  0.6944444E-02
    1      -41.951590   1.000000
    2      -41.951565   1.000000
    3      -39.592786   1.000000
    4      -39.592766   1.000000
    5      -39.447085   1.000000
    6      -39.447049   1.000000
    7      -19.480563   1.000000
    8      -19.480203   1.000000
    9      -18.213395   1.000000
   10      -18.212966   1.000000
   11      -10.988065   1.000000
   12      -10.987916   1.000000
   13       -8.275213   1.000000
   14       -8.275115   1.000000
   15       -7.929940   1.000000
   16       -7.929722   1.000000
   17       -7.703285   1.000000
   18       -7.702781   1.000000
   19       -7.074217   1.000000
   20       -7.073879   1.000000
   21       -6.583270   1.000000
   22       -6.582153   1.000000
   23       -5.509486   1.000000
   24       -5.508684   1.000000
   25       -2.744718   0.000000
   26       -2.740405   0.000000
   27       -2.638472   0.000000
   28       -2.633862   0.000000
   29       -2.483966   0.000000
   30       -2.480958   0.000000
   31       -2.401883   0.000000
   32       -2.398661   0.000000
   33        0.521126   0.000000
   34        0.523939   0.000000
   35        1.479282   0.000000
   36        1.482292   0.000000
   37        1.940777   0.000000
   38        2.089929   0.000000
   39        2.510888   0.000000
   40        3.278729   0.000000
 
  0.8333333E-01  0.8333333E-01  0.0000000E+00  0.6944444E-02
    1      -41.965645   1.000000
    2      -41.964449   1.000000
    3      -39.600842   1.000000
    4      -39.599966   1.000000
    5      -39.479306   1.000000
    6      -39.476688   1.000000
    7      -19.278073   1.000000
    8      -19.275755   1.000000
    9      -18.130046   1.000000
   10      -18.129280   1.000000
   11      -10.775243   1.000000
   12      -10.772394   1.000000
   13       -8.652388   1.000000
   14       -8.640733   1.000000
   15       -8.143186   1.000000
   16       -8.142686   1.000000
   17       -7.740233   1.000000
   18       -7.714776   1.000000
   19       -7.465100   1.000000
   20       -7.458834   1.000000
   21       -6.406745   1.000000
   22       -6.381571   1.000000
   23       -5.653690   1.000000
   24       -5.648327   1.000000
   25       -2.995556   0.000000
   26       -2.983413   0.000000
   27       -2.900380   0.000000
   28       -2.847772   0.000000
   29       -2.694037   0.000000
   30       -2.667455   0.000000
   31       -2.099611   0.000000
   32       -2.051390   0.000000
   33        0.809792   0.000000
   34        0.812555   0.000000
   35        2.093944   0.000000
   36        2.096505   0.000000
   37        2.294654   0.000000
   38        2.300272   0.000000
   39        2.835896   0.000000
   40        2.876505   0.000000
 
  0.1666667E+00  0.8333333E-01  0.0000000E+00  0.6944444E-02
    1      -41.990787   1.000000
    2      -41.987493   1.000000
    3      -39.622461   1.000000
    4      -39.621588   1.000000
    5      -39.524163   1.000000
    6      -39.518474   1.000000
    7      -18.906080   1.000000
    8      -18.899446   1.000000
    9      -17.976816   1.000000
   10      -17.975568   1.000000
   11      -10.488343   1.000000
   12      -10.478111   1.000000
   13       -9.124864   1.000000
   14       -9.120983   1.000000
   15       -8.698474   1.000000
   16       -8.688699   1.000000
   17       -8.024380   1.000000
   18       -8.019822   1.000000
   19       -7.427603   1.000000
   20       -7.388434   1.000000
   21       -6.446326   1.000000
   22       -6.417363   1.000000
   23       -6.006086   1.000000
   24       -5.980658   1.000000
   25       -3.308605   0.000000
   26       -3.281155   0.000000
   27       -2.921280   0.000000
   28       -2.910955   0.000000
   29       -2.818635   0.000000
   30       -2.753540   0.000000
   31       -1.633074   0.000000
   32       -1.587403   0.000000
   33        1.313360   0.000000
   34        1.316222   0.000000
   35        2.666324   0.000000
   36        2.690101   0.000000
   37        2.864670   0.000000
   38        2.870934   0.000000
   39        3.597117   0.000000
   40        4.289552   0.000000
 
  0.2500000E+00  0.8333333E-01  0.0000000E+00  0.6944444E-02
    1      -42.021051   1.000000
    2      -42.015272   1.000000
    3      -39.667642   1.000000
    4      -39.664108   1.000000
    5      -39.552026   1.000000
    6      -39.547207   1.000000
    7      -18.432622   1.000000
    8      -18.419919   1.000000
    9      -17.783239   1.000000
   10      -17.781388   1.000000
   11      -10.512867   1.000000
   12      -10.499179   1.000000
   13       -9.368266   1.000000
   14       -9.354652   1.000000
   15       -9.304941   1.000000
   16       -9.294094   1.000000
   17       -8.398479   1.000000
   18       -8.389207   1.000000
   19       -7.195790   1.000000
   20       -7.129820   1.000000
   21       -6.748435   1.000000
   22       -6.725121   1.000000
   23       -6.317646   1.000000
   24       -6.252075   1.000000
   25       -3.391954   0.000000
   26       -3.330212   0.000000
   27       -2.972661   0.000000
   28       -2.945961   0.000000
   29       -2.412889   0.000000
   30       -2.365089   0.000000
   31       -1.265884   0.000000
   32       -1.230334   0.000000
   33        1.951850   0.000000
   34        1.957730   0.000000
   35        2.999662   0.000000
   36        3.007970   0.000000
   37        3.238900   0.000000
   38        3.245553   0.000000
   39        3.493418   0.000000
   40        3.554817   0.000000
 
  0.3333333E+00  0.8333333E-01  0.0000000E+00  0.6944444E-02
    1      -42.048314   1.000000
    2      -42.040337   1.000000
    3      -39.719151   1.000000
    4      -39.710388   1.000000
    5      -39.562134   1.000000
    6      -39.559458   1.000000
    7      -17.968944   1.000000
    8      -17.949382   1.000000
    9      -17.597412   1.000000
   10      -17.594948   1.000000
   11      -10.853435   1.000000
   12      -10.852904   1.000000
   13       -9.959868   1.000000
   14       -9.952487   1.000000
   15       -9.348697   1.000000
   16       -9.347949   1.000000
   17       -8.567982   1.000000
   18       -8.558891   1.000000
   19       -7.122104   1.000000
   20       -7.091457   1.000000
   21       -7.035540   1.000000
   22       -7.000107   1.000000
   23       -6.210736   1.000000
   24       -6.121198   1.000000
   25       -3.237621   0.000000
   26       -3.201681   0.000000
   27       -2.848703   0.000000
   28       -2.838715   0.000000
   29       -1.921178   0.000000
   30       -1.888466   0.000000
   31       -1.113151   0.000000
   32       -1.091054   0.000000
   33        1.966508   0.000000
   34        1.972288   0.000000
   35        2.648603   0.000000
   36        2.658519   0.000000
   37        3.010328   0.000000
   38        3.023068   0.000000
   39        3.772710   0.000000
   40        3.801342   0.000000
 
  0.4166667E+00  0.8333333E-01  0.0000000E+00  0.6944444E-02
    1      -42.064492   1.000000
    2      -42.055229   1.000000
    3      -39.750599   1.000000
    4      -39.738934   1.000000
    5      -39.565260   1.000000
    6      -39.563703   1.000000
    7      -17.668996   1.000000
    8      -17.644476   1.000000
    9      -17.480107   1.000000
   10      -17.477769   1.000000
   11      -11.125505   1.000000
   12      -11.113585   1.000000
   13      -10.308934   1.000000
   14      -10.303624   1.000000
   15       -9.487106   1.000000
   16       -9.479048   1.000000
   17       -8.622683   1.000000
   18       -8.613723   1.000000
   19       -7.299236   1.000000
   20       -7.293612   1.000000
   21       -6.941888   1.000000
   22       -6.871225   1.000000
   23       -5.971193   1.000000
   24       -5.871027   1.000000
   25       -3.143651   0.000000
   26       -3.104948   0.000000
   27       -2.662417   0.000000
   28       -2.568651   0.000000
   29       -1.522579   0.000000
   30       -1.499442   0.000000
   31       -1.198892   0.000000
   32       -1.186164   0.000000
   33        1.059813   0.000000
   34        1.075470   0.000000
   35        2.989236   0.000000
   36        3.003647   0.000000
   37        3.242379   0.000000
   38        3.261330   0.000000
   39        3.912361   0.000000
   40        4.725720   0.000000
 
  0.5000000E+00  0.8333333E-01  0.0000000E+00  0.6944444E-02
    1      -42.064492   1.000000
    2      -42.055229   1.000000
    3      -39.750599   1.000000
    4      -39.738934   1.000000
    5      -39.565261   1.000000
    6      -39.563703   1.000000
    7      -17.668998   1.000000
    8      -17.644474   1.000000
    9      -17.480090   1.000000
   10      -17.477785   1.000000
   11      -11.125506   1.000000
   12      -11.113586   1.000000
   13      -10.308936   1.000000
   14      -10.303626   1.000000
   15       -9.487105   1.000000
   16       -9.479047   1.000000
   17       -8.622680   1.000000
   18       -8.613720   1.000000
   19       -7.299239   1.000000
   20       -7.293614   1.000000
   21       -6.941891   1.000000
   22       -6.871228   1.000000
   23       -5.971190   1.000000
   24       -5.871025   1.000000
   25       -3.143652   0.000000
   26       -3.104949   0.000000
   27       -2.662414   0.000000
   28       -2.568648   0.000000
   29       -1.522558   0.000000
   30       -1.499418   0.000000
   31       -1.198919   0.000000
   32       -1.186188   0.000000
   33        1.059812   0.000000
   34        1.075470   0.000000
   35        2.989233   0.000000
   36        3.003655   0.000000
   37        3.242343   0.000000
   38        3.261349   0.000000
   39        3.898883   0.000000
   40        4.579572   0.000000
 
 -0.4166667E+00  0.8333333E-01  0.0000000E+00  0.6944444E-02
    1      -42.048314   1.000000
    2      -42.040337   1.000000
    3      -39.719151   1.000000
    4      -39.710388   1.000000
    5      -39.562135   1.000000
    6      -39.559457   1.000000
    7      -17.968947   1.000000
    8      -17.949380   1.000000
    9      -17.597389   1.000000
   10      -17.594968   1.000000
   11      -10.853438   1.000000
   12      -10.852903   1.000000
   13       -9.959872   1.000000
   14       -9.952493   1.000000
   15       -9.348707   1.000000
   16       -9.347937   1.000000
   17       -8.567976   1.000000
   18       -8.558884   1.000000
   19       -7.122107   1.000000
   20       -7.091463   1.000000
   21       -7.035543   1.000000
   22       -7.000115   1.000000
   23       -6.210728   1.000000
   24       -6.121192   1.000000
   25       -3.237625   0.000000
   26       -3.201685   0.000000
   27       -2.848697   0.000000
   28       -2.838705   0.000000
   29       -1.921162   0.000000
   30       -1.888449   0.000000
   31       -1.113173   0.000000
   32       -1.091074   0.000000
   33        1.966508   0.000000
   34        1.972288   0.000000
   35        2.648602   0.000000
   36        2.658519   0.000000
   37        3.010332   0.000000
   38        3.023064   0.000000
   39        3.770779   0.000000
   40        3.851162   0.000000
 
 -0.3333333E+00  0.8333333E-01  0.0000000E+00  0.6944444E-02
    1      -42.021051   1.000000
    2      -42.015272   1.000000
    3      -39.667642   1.000000
    4      -39.664107   1.000000
    5      -39.552026   1.000000
    6      -39.547207   1.000000
    7      -18.432625   1.000000
    8      -18.419917   1.000000
    9      -17.783214   1.000000
   10      -17.781409   1.000000
   11      -10.512867   1.000000
   12      -10.499180   1.000000
   13       -9.368266   1.000000
   14       -9.354662   1.000000
   15       -9.304952   1.000000
   16       -9.294089   1.000000
   17       -8.398474   1.000000
   18       -8.389201   1.000000
   19       -7.195792   1.000000
   20       -7.129824   1.000000
   21       -6.748439   1.000000
   22       -6.725125   1.000000
   23       -6.317636   1.000000
   24       -6.252068   1.000000
   25       -3.391961   0.000000
   26       -3.330219   0.000000
   27       -2.972653   0.000000
   28       -2.945952   0.000000
   29       -2.412885   0.000000
   30       -2.365083   0.000000
   31       -1.265893   0.000000
   32       -1.230342   0.000000
   33        1.951848   0.000000
   34        1.957732   0.000000
   35        2.999656   0.000000
   36        3.007971   0.000000
   37        3.239562   0.000000
   38        3.246465   0.000000
   39        3.502166   0.000000
   40        3.570213   0.000000
 
 -0.2500000E+00  0.8333333E-01  0.0000000E+00  0.6944444E-02
    1      -41.990786   1.000000
    2      -41.987493   1.000000
    3      -39.622462   1.000000
    4      -39.621586   1.000000
    5      -39.524163   1.000000
    6      -39.518475   1.000000
    7      -18.906084   1.000000
    8      -18.899443   1.000000
    9      -17.976790   1.000000
   10      -17.975592   1.000000
   11      -10.488344   1.000000
   12      -10.478112   1.000000
   13       -9.124870   1.000000
   14       -9.120987   1.000000
   15       -8.698471   1.000000
   16       -8.688695   1.000000
   17       -8.024386   1.000000
   18       -8.019827   1.000000
   19       -7.427602   1.000000
   20       -7.388432   1.000000
   21       -6.446326   1.000000