<?xml version="1.0" encoding="ISO-8859-1"?>
<modeling>
 <generator>
  <i name="program" type="string">vasp </i>
  <i name="version" type="string">5.4.1  </i>
  <i name="subversion" type="string">05Feb16 (build Feb 01 2017 11:38:15) complex                          parallel </i>
  <i name="platform" type="string">IFC91_ompi </i>
  <i name="date" type="string">2025 10 20 </i>
  <i name="time" type="string">17:03:09 </i>
 </generator>
 <incar>
  <i type="string" name="SYSTEM"> MoS2 SOC SCF (warm, 12x12x1)</i>
  <i type="int" name="ISTART">     0</i>
  <i type="string" name="PREC">accurate</i>
  <i type="string" name="ALGO"> All</i>
  <i type="logical" name="LSORBIT"> T  </i>
  <v name="SAXIS">      0.00000000      0.00000000      1.00000000</v>
  <i name="AMIX">      0.20000000</i>
  <i name="BMIX">      0.00010000</i>
  <i name="AMIX_MAG">      0.20000000</i>
  <i name="BMIX_MAG">      0.00010000</i>
  <i type="int" name="ICHARG">     2</i>
  <i type="int" name="NELM">   200</i>
  <i type="int" name="IBRION">    -1</i>
  <i name="EDIFF">      0.00000010</i>
  <i type="int" name="NSW">     0</i>
  <i type="int" name="ISIF">     2</i>
  <i type="int" name="ISYM">     0</i>
  <i name="ENCUT">    600.00000000</i>
  <i type="logical" name="LREAL"> F  </i>
  <i type="int" name="ISMEAR">     0</i>
  <i name="SIGMA">      0.05000000</i>
  <i type="int" name="NWRITE">     3</i>
  <i type="int" name="LMAXMIX">     4</i>
  <i type="logical" name="LWAVE"> T  </i>
  <i type="logical" name="LCHARG"> T  </i>
  <i type="logical" name="LASPH"> T  </i>
  <i type="logical" name="GGA_COMPAT"> F  </i>
  <v type="int" name="KPOINT_BSE">    -1     0     0     0</v>
  <i type="int" name="NELM">   200</i>
  <i type="logical" name="LDIPOL"> T  </i>
  <i type="int" name="IDIPOL">     3</i>
  <v name="DIPOL">      0.50000000      0.50000000      0.50000000</v>
  <i type="logical" name="LASPH"> T  </i>
 </incar>
 <kpoints>
  <generation param="Gamma">
   <v type="int" name="divisions">      12       12        1 </v>
   <v name="usershift">      0.00000000       0.00000000       0.00000000 </v>
   <v name="genvec1">      0.08333333       0.00000000       0.00000000 </v>
   <v name="genvec2">      0.00000000       0.08333333       0.00000000 </v>
   <v name="genvec3">      0.00000000       0.00000000       1.00000000 </v>
   <v name="shift">      0.00000000       0.00000000       0.00000000 </v>
  </generation>
  <varray name="kpointlist" >
   <v>       0.00000000       0.00000000       0.00000000 </v>
   <v>       0.08333333       0.00000000       0.00000000 </v>
   <v>       0.16666667       0.00000000       0.00000000 </v>
   <v>       0.25000000       0.00000000       0.00000000 </v>
   <v>       0.33333333       0.00000000       0.00000000 </v>
   <v>       0.41666667       0.00000000       0.00000000 </v>
   <v>       0.50000000       0.00000000       0.00000000 </v>
   <v>      -0.41666667       0.00000000       0.00000000 </v>
   <v>      -0.33333333      -0.00000000       0.00000000 </v>
   <v>      -0.25000000       0.00000000       0.00000000 </v>
   <v>      -0.16666667       0.00000000       0.00000000 </v>
   <v>      -0.08333333       0.00000000       0.00000000 </v>
   <v>       0.00000000       0.08333333       0.00000000 </v>
   <v>       0.08333333       0.08333333       0.00000000 </v>
   <v>       0.16666667       0.08333333       0.00000000 </v>
   <v>       0.25000000       0.08333333       0.00000000 </v>
   <v>       0.33333333       0.08333333       0.00000000 </v>
   <v>       0.41666667       0.08333333       0.00000000 </v>
   <v>       0.50000000       0.08333333       0.00000000 </v>
   <v>      -0.41666667       0.08333333       0.00000000 </v>
   <v>      -0.33333333       0.08333333       0.00000000 </v>
   <v>      -0.25000000       0.08333333       0.00000000 </v>
   <v>      -0.16666667       0.08333333       0.00000000 </v>
   <v>      -0.08333333       0.08333333       0.00000000 </v>
   <v>       0.00000000       0.16666667       0.00000000 </v>
   <v>       0.08333333       0.16666667       0.00000000 </v>
   <v>       0.16666667       0.16666667       0.00000000 </v>
   <v>       0.25000000       0.16666667       0.00000000 </v>
   <v>       0.33333333       0.16666667       0.00000000 </v>
   <v>       0.41666667       0.16666667       0.00000000 </v>
   <v>       0.50000000       0.16666667       0.00000000 </v>
   <v>      -0.41666667       0.16666667       0.00000000 </v>
   <v>      -0.33333333       0.16666667       0.00000000 </v>
   <v>      -0.25000000       0.16666667       0.00000000 </v>
   <v>      -0.16666667       0.16666667       0.00000000 </v>
   <v>      -0.08333333       0.16666667       0.00000000 </v>
   <v>       0.00000000       0.25000000       0.00000000 </v>
   <v>       0.08333333       0.25000000       0.00000000 </v>
   <v>       0.16666667       0.25000000       0.00000000 </v>
   <v>       0.25000000       0.25000000       0.00000000 </v>
   <v>       0.33333333       0.25000000       0.00000000 </v>
   <v>       0.41666667       0.25000000       0.00000000 </v>
   <v>       0.50000000       0.25000000       0.00000000 </v>
   <v>      -0.41666667       0.25000000       0.00000000 </v>
   <v>      -0.33333333       0.25000000       0.00000000 </v>
   <v>      -0.25000000       0.25000000       0.00000000 </v>
   <v>      -0.16666667       0.25000000       0.00000000 </v>
   <v>      -0.08333333       0.25000000       0.00000000 </v>
   <v>       0.00000000       0.33333333       0.00000000 </v>
   <v>       0.08333333       0.33333333       0.00000000 </v>
   <v>       0.16666667       0.33333333       0.00000000 </v>
   <v>       0.25000000       0.33333333       0.00000000 </v>
   <v>       0.33333333       0.33333333       0.00000000 </v>
   <v>       0.41666667       0.33333333       0.00000000 </v>
   <v>       0.50000000       0.33333333       0.00000000 </v>
   <v>      -0.41666667       0.33333333       0.00000000 </v>
   <v>      -0.33333333       0.33333333       0.00000000 </v>
   <v>      -0.25000000       0.33333333       0.00000000 </v>
   <v>      -0.16666667       0.33333333       0.00000000 </v>
   <v>      -0.08333333       0.33333333       0.00000000 </v>
   <v>       0.00000000       0.41666667       0.00000000 </v>
   <v>       0.08333333       0.41666667       0.00000000 </v>
   <v>       0.16666667       0.41666667       0.00000000 </v>
   <v>       0.25000000       0.41666667       0.00000000 </v>
   <v>       0.33333333       0.41666667       0.00000000 </v>
   <v>       0.41666667       0.41666667       0.00000000 </v>
   <v>       0.50000000       0.41666667       0.00000000 </v>
   <v>      -0.41666667       0.41666667       0.00000000 </v>
   <v>      -0.33333333       0.41666667       0.00000000 </v>
   <v>      -0.25000000       0.41666667       0.00000000 </v>
   <v>      -0.16666667       0.41666667       0.00000000 </v>
   <v>      -0.08333333       0.41666667       0.00000000 </v>
   <v>       0.00000000       0.50000000       0.00000000 </v>
   <v>       0.08333333       0.50000000       0.00000000 </v>
   <v>       0.16666667       0.50000000       0.00000000 </v>
   <v>       0.25000000       0.50000000       0.00000000 </v>
   <v>       0.33333333       0.50000000       0.00000000 </v>
   <v>       0.41666667       0.50000000       0.00000000 </v>
   <v>       0.50000000       0.50000000       0.00000000 </v>
   <v>      -0.41666667       0.50000000       0.00000000 </v>
   <v>      -0.33333333       0.50000000       0.00000000 </v>
   <v>      -0.25000000       0.50000000       0.00000000 </v>
   <v>      -0.16666667       0.50000000       0.00000000 </v>
   <v>      -0.08333333       0.50000000       0.00000000 </v>
   <v>       0.00000000      -0.41666667       0.00000000 </v>
   <v>       0.08333333      -0.41666667       0.00000000 </v>
   <v>       0.16666667      -0.41666667       0.00000000 </v>
   <v>       0.25000000      -0.41666667       0.00000000 </v>
   <v>       0.33333333      -0.41666667       0.00000000 </v>
   <v>       0.41666667      -0.41666667       0.00000000 </v>
   <v>       0.50000000      -0.41666667       0.00000000 </v>
   <v>      -0.41666667      -0.41666667       0.00000000 </v>
   <v>      -0.33333333      -0.41666667       0.00000000 </v>
   <v>      -0.25000000      -0.41666667       0.00000000 </v>
   <v>      -0.16666667      -0.41666667       0.00000000 </v>
   <v>      -0.08333333      -0.41666667       0.00000000 </v>
   <v>      -0.00000000      -0.33333333       0.00000000 </v>
   <v>       0.08333333      -0.33333333       0.00000000 </v>
   <v>       0.16666667      -0.33333333       0.00000000 </v>
   <v>       0.25000000      -0.33333333       0.00000000 </v>
   <v>       0.33333333      -0.33333333       0.00000000 </v>
   <v>       0.41666667      -0.33333333       0.00000000 </v>
   <v>       0.50000000      -0.33333333       0.00000000 </v>
   <v>      -0.41666667      -0.33333333       0.00000000 </v>
   <v>      -0.33333333      -0.33333333       0.00000000 </v>
   <v>      -0.25000000      -0.33333333       0.00000000 </v>
   <v>      -0.16666667      -0.33333333       0.00000000 </v>
   <v>      -0.08333333      -0.33333333       0.00000000 </v>
   <v>       0.00000000      -0.25000000       0.00000000 </v>
   <v>       0.08333333      -0.25000000       0.00000000 </v>
   <v>       0.16666667      -0.25000000       0.00000000 </v>
   <v>       0.25000000      -0.25000000       0.00000000 </v>
   <v>       0.33333333      -0.25000000       0.00000000 </v>
   <v>       0.41666667      -0.25000000       0.00000000 </v>
   <v>       0.50000000      -0.25000000       0.00000000 </v>
   <v>      -0.41666667      -0.25000000       0.00000000 </v>
   <v>      -0.33333333      -0.25000000       0.00000000 </v>
   <v>      -0.25000000      -0.25000000       0.00000000 </v>
   <v>      -0.16666667      -0.25000000       0.00000000 </v>
   <v>      -0.08333333      -0.25000000       0.00000000 </v>
   <v>       0.00000000      -0.16666667       0.00000000 </v>
   <v>       0.08333333      -0.16666667       0.00000000 </v>
   <v>       0.16666667      -0.16666667       0.00000000 </v>
   <v>       0.25000000      -0.16666667       0.00000000 </v>
   <v>       0.33333333      -0.16666667       0.00000000 </v>
   <v>       0.41666667      -0.16666667       0.00000000 </v>
   <v>       0.50000000      -0.16666667       0.00000000 </v>
   <v>      -0.41666667      -0.16666667       0.00000000 </v>
   <v>      -0.33333333      -0.16666667       0.00000000 </v>
   <v>      -0.25000000      -0.16666667       0.00000000 </v>
   <v>      -0.16666667      -0.16666667       0.00000000 </v>
   <v>      -0.08333333      -0.16666667       0.00000000 </v>
   <v>       0.00000000      -0.08333333       0.00000000 </v>
   <v>       0.08333333      -0.08333333       0.00000000 </v>
   <v>       0.16666667      -0.08333333       0.00000000 </v>
   <v>       0.25000000      -0.08333333       0.00000000 </v>
   <v>       0.33333333      -0.08333333       0.00000000 </v>
   <v>       0.41666667      -0.08333333       0.00000000 </v>
   <v>       0.50000000      -0.08333333       0.00000000 </v>
   <v>      -0.41666667      -0.08333333       0.00000000 </v>
   <v>      -0.33333333      -0.08333333       0.00000000 </v>
   <v>      -0.25000000      -0.08333333       0.00000000 </v>
   <v>      -0.16666667      -0.08333333       0.00000000 </v>
   <v>      -0.08333333      -0.08333333       0.00000000 </v>
  </varray>
  <varray name="weights" >
   <v>       0.00694444 </v>
   <v>       0.00694444 </v>
   <v>       0.00694444 </v>
   <v>       0.00694444 </v>
   <v>       0.00694444 </v>
   <v>       0.00694444 </v>
   <v>       0.00694444 </v>
   <v>       0.00694444 </v>
   <v>       0.00694444 </v>
   <v>       0.00694444 </v>
   <v>       0.00694444 </v>
   <v>       0.00694444 </v>
   <v>       0.00694444 </v>
   <v>       0.00694444 </v>
   <v>       0.00694444 </v>
   <v>       0.00694444 </v>
   <v>       0.00694444 </v>
   <v>       0.00694444 </v>
   <v>       0.00694444 </v>
   <v>       0.00694444 </v>
   <v>       0.00694444 </v>
   <v>       0.00694444 </v>
   <v>       0.00694444 </v>
   <v>       0.00694444 </v>
   <v>       0.00694444 </v>
   <v>       0.00694444 </v>
   <v>       0.00694444 </v>
   <v>       0.00694444 </v>
   <v>       0.00694444 </v>
   <v>       0.00694444 </v>
   <v>       0.00694444 </v>
   <v>       0.00694444 </v>
   <v>       0.00694444 </v>
   <v>       0.00694444 </v>
   <v>       0.00694444 </v>
   <v>       0.00694444 </v>
   <v>       0.00694444 </v>
   <v>       0.00694444 </v>
   <v>       0.00694444 </v>
   <v>       0.00694444 </v>
   <v>       0.00694444 </v>
   <v>       0.00694444 </v>
   <v>       0.00694444 </v>
   <v>       0.00694444 </v>
   <v>       0.00694444 </v>
   <v>       0.00694444 </v>
   <v>       0.00694444 </v>
   <v>       0.00694444 </v>
   <v>       0.00694444 </v>
   <v>       0.00694444 </v>
   <v>       0.00694444 </v>
   <v>       0.00694444 </v>
   <v>       0.00694444 </v>
   <v>       0.00694444 </v>
   <v>       0.00694444 </v>
   <v>       0.00694444 </v>
   <v>       0.00694444 </v>
   <v>       0.00694444 </v>
   <v>       0.00694444 </v>
   <v>       0.00694444 </v>
   <v>       0.00694444 </v>
   <v>       0.00694444 </v>
   <v>       0.00694444 </v>
   <v>       0.00694444 </v>
   <v>       0.00694444 </v>
   <v>       0.00694444 </v>
   <v>       0.00694444 </v>
   <v>       0.00694444 </v>
   <v>       0.00694444 </v>
   <v>       0.00694444 </v>
   <v>       0.00694444 </v>
   <v>       0.00694444 </v>
   <v>       0.00694444 </v>
   <v>       0.00694444 </v>
   <v>       0.00694444 </v>
   <v>       0.00694444 </v>
   <v>       0.00694444 </v>
   <v>       0.00694444 </v>
   <v>       0.00694444 </v>
   <v>       0.00694444 </v>
   <v>       0.00694444 </v>
   <v>       0.00694444 </v>
   <v>       0.00694444 </v>
   <v>       0.00694444 </v>
   <v>       0.00694444 </v>
   <v>       0.00694444 </v>
   <v>       0.00694444 </v>
   <v>       0.00694444 </v>
   <v>       0.00694444 </v>
   <v>       0.00694444 </v>
   <v>       0.00694444 </v>
   <v>       0.00694444 </v>
   <v>       0.00694444 </v>
   <v>       0.00694444 </v>
   <v>       0.00694444 </v>
   <v>       0.00694444 </v>
   <v>       0.00694444 </v>
   <v>       0.00694444 </v>
   <v>       0.00694444 </v>
   <v>       0.00694444 </v>
   <v>       0.00694444 </v>
   <v>       0.00694444 </v>
   <v>       0.00694444 </v>
   <v>       0.00694444 </v>
   <v>       0.00694444 </v>
   <v>       0.00694444 </v>
   <v>       0.00694444 </v>
   <v>       0.00694444 </v>
   <v>       0.00694444 </v>
   <v>       0.00694444 </v>
   <v>       0.00694444 </v>
   <v>       0.00694444 </v>
   <v>       0.00694444 </v>
   <v>       0.00694444 </v>
   <v>       0.00694444 </v>
   <v>       0.00694444 </v>
   <v>       0.00694444 </v>
   <v>       0.00694444 </v>
   <v>       0.00694444 </v>
   <v>       0.00694444 </v>
   <v>       0.00694444 </v>
   <v>       0.00694444 </v>
   <v>       0.00694444 </v>
   <v>       0.00694444 </v>
   <v>       0.00694444 </v>
   <v>       0.00694444 </v>
   <v>       0.00694444 </v>
   <v>       0.00694444 </v>
   <v>       0.00694444 </v>
   <v>       0.00694444 </v>
   <v>       0.00694444 </v>
   <v>       0.00694444 </v>
   <v>       0.00694444 </v>
   <v>       0.00694444 </v>
   <v>       0.00694444 </v>
   <v>       0.00694444 </v>
   <v>       0.00694444 </v>
   <v>       0.00694444 </v>
   <v>       0.00694444 </v>
   <v>       0.00694444 </v>
   <v>       0.00694444 </v>
   <v>       0.00694444 </v>
   <v>       0.00694444 </v>
   <v>       0.00694444 </v>
  </varray>
 </kpoints>
 <parameters>
  <separator name="general" >
   <i type="string" name="SYSTEM">MoS2 SOC SCF (warm, 12x12x1)</i>
   <i type="logical" name="LCOMPAT"> F  </i>
  </separator>
  <separator name="electronic" >
   <i type="string" name="PREC">accura</i>
   <i name="ENMAX">    600.00000000</i>
   <i name="ENAUG">    392.42700000</i>
   <i name="EDIFF">      0.00000010</i>
   <i type="int" name="IALGO">    58</i>
   <i type="int" name="IWAVPR">    10</i>
   <i type="int" name="NBANDS">    40</i>
   <i name="NELECT">     24.00000000</i>
   <i type="int" name="TURBO">     0</i>
   <i type="int" name="IRESTART">     0</i>
   <i type="int" name="NREBOOT">     0</i>
   <i type="int" name="NMIN">     0</i>
   <i name="EREF">      0.00000000</i>
   <separator name="electronic smearing" >
    <i type="int" name="ISMEAR">     0</i>
    <i name="SIGMA">      0.05000000</i>
    <i name="KSPACING">      0.50000000</i>
    <i type="logical" name="KGAMMA"> T  </i>
   </separator>
   <separator name="electronic projectors" >
    <i type="logical" name="LREAL"> F  </i>
    <v name="ROPT">      0.00000000      0.00000000</v>
    <i type="int" name="LMAXPAW">  -100</i>
    <i type="int" name="LMAXMIX">     4</i>
    <i type="logical" name="NLSPLINE"> F  </i>
   </separator>
   <separator name="electronic startup" >
    <i type="int" name="ISTART">     0</i>
    <i type="int" name="ICHARG">     2</i>
    <i type="int" name="INIWAV">     1</i>
   </separator>
   <separator name="electronic spin" >
    <i type="int" name="ISPIN">     1</i>
    <i type="logical" name="LNONCOLLINEAR"> T  </i>
    <v name="MAGMOM">      1.00000000      1.00000000      1.00000000      1.00000000      1.00000000      1.00000000      1.00000000      1.00000000      1.00000000</v>
    <i name="NUPDOWN">     -1.00000000</i>
    <i type="logical" name="LSORBIT"> T  </i>
    <v name="SAXIS">      0.00000000      0.00000000      1.00000000</v>
    <i type="logical" name="LSPIRAL"> F  </i>
    <v name="QSPIRAL">      0.00000000      0.00000000      0.00000000</v>
    <i type="logical" name="LZEROZ"> F  </i>
   </separator>
   <separator name="electronic exchange-correlation" >
    <i type="logical" name="LASPH"> T  </i>
    <i type="logical" name="LMETAGGA"> F  </i>
   </separator>
   <separator name="electronic convergence" >
    <i type="int" name="NELM">   200</i>
    <i type="int" name="NELMDL">    -5</i>
    <i type="int" name="NELMIN">     2</i>
    <i name="ENINI">    600.00000000</i>
    <separator name="electronic convergence detail" >
     <i type="logical" name="LDIAG"> T  </i>
     <i type="logical" name="LSUBROT"> F  </i>
     <i name="WEIMIN">      0.00000000</i>
     <i name="EBREAK">      0.00000000</i>
     <i name="DEPER">      0.30000000</i>
     <i type="int" name="NRMM">     4</i>
     <i name="TIME">      0.40000000</i>
    </separator>
   </separator>
   <separator name="electronic mixer" >
    <i name="AMIX">      0.20000000</i>
    <i name="BMIX">      0.00010000</i>
    <i name="AMIN">      0.10000000</i>
    <i name="AMIX_MAG">      0.20000000</i>
    <i name="BMIX_MAG">      0.00010000</i>
    <separator name="electronic mixer details" >
     <i type="int" name="IMIX">     4</i>
     <i type="logical" name="MIXFIRST"> F  </i>
     <i type="int" name="MAXMIX">   -45</i>
     <i name="WC">    100.00000000</i>
     <i type="int" name="INIMIX">     1</i>
     <i type="int" name="MIXPRE">     1</i>
     <i type="int" name="MREMOVE">     5</i>
    </separator>
   </separator>
   <separator name="electronic dipolcorrection" >
    <i type="logical" name="LDIPOL"> T  </i>
    <i type="logical" name="LMONO"> F  </i>
    <i type="int" name="IDIPOL">     3</i>
    <i name="EPSILON">      1.00000000</i>
    <v name="DIPOL">      0.50000000      0.50000000      0.50000000</v>
    <i name="EFIELD">      0.00000000</i>
   </separator>
  </separator>
  <separator name="grids" >
   <i type="int" name="NGX">    28</i>
   <i type="int" name="NGY">    28</i>
   <i type="int" name="NGZ">   280</i>
   <i type="int" name="NGXF">    56</i>
   <i type="int" name="NGYF">    56</i>
   <i type="int" name="NGZF">   560</i>
   <i type="logical" name="ADDGRID"> F  </i>
  </separator>
  <separator name="ionic" >
   <i type="int" name="NSW">     0</i>
   <i type="int" name="IBRION">    -1</i>
   <i type="int" name="ISIF">     2</i>
   <i name="PSTRESS">      0.00000000</i>
   <i name="EDIFFG">      0.00000100</i>
   <i type="int" name="NFREE">     0</i>
   <i name="POTIM">      0.50000000</i>
   <i name="SMASS">     -3.00000000</i>
   <i name="SCALEE">      1.00000000</i>
  </separator>
  <separator name="ionic md" >
   <i name="TEBEG">      0.00010000</i>
   <i name="TEEND">      0.00010000</i>
   <i type="int" name="NBLOCK">     1</i>
   <i type="int" name="KBLOCK">     1</i>
   <i type="int" name="NPACO">   256</i>
   <i name="APACO">     16.00000000</i>
  </separator>
  <separator name="symmetry" >
   <i type="int" name="ISYM">     0</i>
   <i name="SYMPREC">      0.00001000</i>
  </separator>
  <separator name="dos" >
   <i type="logical" name="LORBIT"> F  </i>
   <v name="RWIGS">     -1.00000000     -1.00000000</v>
   <i type="int" name="NEDOS">   301</i>
   <i name="EMIN">     10.00000000</i>
   <i name="EMAX">    -10.00000000</i>
   <i name="EFERMI">      0.00000000</i>
  </separator>
  <separator name="writing" >
   <i type="int" name="NWRITE">     3</i>
   <i type="logical" name="LWAVE"> T  </i>
   <i type="logical" name="LCHARG"> T  </i>
   <i type="logical" name="LPARD"> F  </i>
   <i type="logical" name="LVTOT"> F  </i>
   <i type="logical" name="LVHAR"> F  </i>
   <i type="logical" name="LELF"> F  </i>
   <i type="logical" name="LOPTICS"> F  </i>
   <v name="STM">      0.00000000      0.00000000      0.00000000      0.00000000      0.00000000      0.00000000      0.00000000</v>
  </separator>
  <separator name="performance" >
   <i type="int" name="NPAR">     8</i>
   <i type="int" name="NSIM">     4</i>
   <i type="int" name="NBLK">    -1</i>
   <i type="logical" name="LPLANE"> T  </i>
   <i type="logical" name="LSCALAPACK"> T  </i>
   <i type="logical" name="LSCAAWARE"> F  </i>
   <i type="logical" name="LSCALU"> F  </i>
   <i type="logical" name="LASYNC"> F  </i>
   <i type="logical" name="LORBITALREAL"> F  </i>
  </separator>
  <separator name="miscellaneous" >
   <i type="int" name="IDIOT">     3</i>
   <i type="logical" name="LMUSIC"> F  </i>
   <v name="POMASS">     95.94000000     32.06600000</v>
   <v name="DARWINR">      0.00000000      0.00000000</v>
   <v name="DARWINV">      1.00000000      1.00000000</v>
   <i type="logical" name="LCORR"> T  </i>
  </separator>
  <i type="logical" name="GGA_COMPAT"> F  </i>
  <i type="logical" name="LBERRY"> F  </i>
  <i type="int" name="ICORELEVEL">     0</i>
  <i type="logical" name="LDAU"> F  </i>
  <i type="int" name="I_CONSTRAINED_M">     0</i>
  <separator name="electronic exchange-correlation" >
   <i type="string" name="GGA">--</i>
   <i type="int" name="VOSKOWN">     0</i>
   <i type="logical" name="LHFCALC"> F  </i>
   <i type="string" name="PRECFOCK"></i>
   <i type="logical" name="LSYMGRAD"> F  </i>
   <i type="logical" name="LHFONE"> F  </i>
   <i type="logical" name="LRHFCALC"> F  </i>
   <i type="logical" name="LTHOMAS"> F  </i>
   <i type="logical" name="LMODELHF"> F  </i>
   <i name="ENCUT4O">     -1.00000000</i>
   <i type="int" name="EXXOEP">     0</i>
   <i type="int" name="FOURORBIT">     0</i>
   <i name="AEXX">      0.00000000</i>
   <i name="HFALPHA">      0.00000000</i>
   <i name="MCALPHA">      0.00000000</i>
   <i name="ALDAX">      1.00000000</i>
   <i name="AGGAX">      1.00000000</i>
   <i name="ALDAC">      1.00000000</i>
   <i name="AGGAC">      1.00000000</i>
   <i type="int" name="NKREDX">     1</i>
   <i type="int" name="NKREDY">     1</i>
   <i type="int" name="NKREDZ">     1</i>
   <i type="logical" name="SHIFTRED"> F  </i>
   <i type="logical" name="ODDONLY"> F  </i>
   <i type="logical" name="EVENONLY"> F  </i>
   <i type="int" name="LMAXFOCK">     0</i>
   <i type="int" name="NMAXFOCKAE">     0</i>
   <i type="logical" name="LFOCKAEDFT"> F  </i>
   <i name="HFSCREEN">      0.00000000</i>
   <i name="HFSCREENC">      0.00000000</i>
   <i type="int" name="NBANDSGWLOW">     0</i>
  </separator>
  <separator name="vdW DFT" >
   <i type="logical" name="LUSE_VDW"> F  </i>
   <i name="Zab_VDW">     -0.84910000</i>
   <i name="PARAM1">      0.12340000</i>
   <i name="PARAM2">      1.00000000</i>
   <i name="PARAM3">      0.00000000</i>
  </separator>
  <separator name="model GW" >
   <i type="int" name="MODEL_GW">     0</i>
   <i name="MODEL_EPS0">     60.63764212</i>
   <i name="MODEL_ALPHA">      1.00000000</i>
  </separator>
  <separator name="linear response parameters" >
   <i type="logical" name="LEPSILON"> F  </i>
   <i type="logical" name="LRPA"> F  </i>
   <i type="logical" name="LNABLA"> F  </i>
   <i type="logical" name="LVEL"> F  </i>
   <i type="int" name="KINTER">     0</i>
   <i name="CSHIFT">      0.10000000</i>
   <i name="OMEGAMAX">     -1.00000000</i>
   <i name="DEG_THRESHOLD">      0.00200000</i>
  </separator>
  <separator name="orbital magnetization" >
   <i type="logical" name="NUCIND"> F  </i>
   <v name="MAGPOS">      0.00000000      0.00000000      0.00000000</v>
   <i type="logical" name="LNICSALL"> T  </i>
   <i type="logical" name="ORBITALMAG"> F  </i>
   <i type="logical" name="LMAGBLOCH"> F  </i>
   <i type="logical" name="LCHIMAG"> F  </i>
   <i type="logical" name="LGAUGE"> T  </i>
   <i type="int" name="MAGATOM">     0</i>
   <v name="MAGDIPOL">      0.00000000      0.00000000      0.00000000</v>
   <v name="AVECCONST">      0.00000000      0.00000000      0.00000000</v>
  </separator>
  <separator name="response functions" >
   <i type="logical" name="LADDER"> F  </i>
   <i type="logical" name="LFXC"> F  </i>
   <i type="logical" name="LHARTREE"> T  </i>
   <i type="int" name="IBSE">     0</i>
   <v type="int" name="KPOINT">    -1     0     0     0</v>
   <i type="logical" name="LTCTE"> F  </i>
   <i type="logical" name="LTETE"> F  </i>
   <i type="logical" name="LTRIPLET"> F  </i>
   <i type="logical" name="LFXCEPS"> F  </i>
   <i type="logical" name="LFXHEG"> F  </i>
   <i type="int" name="NATURALO">     0</i>
   <i type="logical" name="L2ORDER"> F  </i>
   <i type="logical" name="LUSEW"> F  </i>
   <i name="ENCUTGW">     -2.00000000</i>
   <i name="ENCUTGWSOFT">     -2.00000000</i>
   <i name="ENCUTLF">     -1.00000000</i>
   <i type="int" name="LMAXMP2">    -1</i>
   <i name="SCISSOR">      0.00000000</i>
   <i type="int" name="NOMEGA">     0</i>
   <i type="int" name="NOMEGAR">     0</i>
   <i type="int" name="NBANDSGW">    -1</i>
   <i type="int" name="NBANDSO">    -1</i>
   <i type="int" name="NBANDSV">    -1</i>
   <i type="int" name="NELM">   200</i>
   <i type="int" name="NELMHF">     1</i>
   <i type="int" name="DIM">     3</i>
   <i type="int" name="ANTIRES">     0</i>
   <i name="OMEGAMAX">    -30.00000000</i>
   <i name="OMEGAMIN">    -30.00000000</i>
   <i name="OMEGATL">   -200.00000000</i>
   <i type="int" name="OMEGAGRID">     0</i>
   <i name="CSHIFT">     -0.10000000</i>
   <i type="logical" name="SELFENERGY"> F  </i>
   <i type="logical" name="LSPECTRAL"> F  </i>
   <i type="logical" name="LSPECTRALGW"> F  </i>
   <i type="logical" name="LSINGLES"> F  </i>
   <i type="logical" name="LFERMIGW"> F  </i>
   <i type="logical" name="ODDONLYGW"> F  </i>
   <i type="logical" name="EVENONLYGW"> F  </i>
   <i type="int" name="NKREDLFX">     1</i>
   <i type="int" name="NKREDLFY">     1</i>
   <i type="int" name="NKREDLFZ">     1</i>
   <i type="int" name="MAXMEM">  1800</i>
   <i type="int" name="TELESCOPE">     0</i>
   <i type="int" name="TAUPAR">     1</i>
   <i type="int" name="OMEGAPAR">    -1</i>
   <i name="LAMBDA">      1.00000000</i>
  </separator>
  <separator name="External order field" >
   <i name="OFIELD_KAPPA">      0.00000000</i>
   <v name="OFIELD_K">      0.00000000      0.00000000      0.00000000</v>
   <i name="OFIELD_Q6_NEAR">      0.00000000</i>
   <i name="OFIELD_Q6_FAR">      0.00000000</i>
   <i name="OFIELD_A">      0.00000000</i>
  </separator>
  <separator name="solvation model" >
   <i type="logical" name="LSOL"> F  </i>
  </separator>
 </parameters>
 <atominfo>
  <atoms>       3 </atoms>
  <types>       2 </types>
  <array name="atoms" >
   <dimension dim="1">ion</dimension>
   <field type="string">element</field>
   <field type="int">atomtype</field>
   <set>
    <rc><c>Mo</c><c>   1</c></rc>
    <rc><c>S </c><c>   2</c></rc>
    <rc><c>S </c><c>   2</c></rc>
   </set>
  </array>
  <array name="atomtypes" >
   <dimension dim="1">type</dimension>
   <field type="int">atomspertype</field>
   <field type="string">element</field>
   <field>mass</field>
   <field>valence</field>
   <field type="string">pseudopotential</field>
   <set>
    <rc><c>   1</c><c>Mo</c><c>     95.94000000</c><c>     12.00000000</c><c> PAW_PBE Mo_pv 08Apr2002                </c></rc>
    <rc><c>   2</c><c>S </c><c>     32.06600000</c><c>      6.00000000</c><c>  PAW_PBE S 17Jan2003                   </c></rc>
   </set>
  </array>
 </atominfo>
 <structure name="initialpos" >
  <crystal>
   <varray name="basis" >
    <v>       1.58218970      -2.74043224       0.00000000 </v>
    <v>       1.58218970       2.74043224       0.00000000 </v>
    <v>       0.00000000       0.00000000      34.96267827 </v>
   </varray>
   <i name="volume">    303.18821061 </i>
   <varray name="rec_basis" >
    <v>       0.31601773      -0.18245297       0.00000000 </v>
    <v>       0.31601773       0.18245297       0.00000000 </v>
    <v>       0.00000000       0.00000000       0.02860193 </v>
   </varray>
  </crystal>
  <varray name="positions" >
   <v>       0.66666700       0.33333300       0.10664700 </v>
   <v>       0.33333300       0.66666700       0.06198962 </v>
   <v>       0.33333300       0.66666700       0.15130538 </v>
  </varray>
 </structure>
 <calculation>
  <scstep>
   <time name="total">   79.60   79.72</time>
   <dipole>
    <v name="dipole">      0.00000000       0.00000000       0.42979289 </v>
    <i name="Tr[quadrupol]">    -53.84297325 </i>
    <i name="Echarged">      0.00000000 </i>
    <i name="Edipol_quadrupol">      0.00000000 </i>
    <i name="Eion">      0.00000000 </i>
   </dipole>
   <energy>
    <i name="alphaZ">    102.12871381 </i>
    <i name="ewald">  12079.28848830 </i>
    <i name="hartreedc"> -13643.40632997 </i>
    <i name="XCdc">     63.19579726 </i>
    <i name="pawpsdc">   1093.56890438 </i>
    <i name="pawaedc">  -1067.58196123 </i>
    <i name="eentropy">     -0.00212753 </i>
    <i name="bandstr">   -253.63105447 </i>
    <i name="atom">   1837.94417650 </i>
    <i name="e_fr_energy">    211.50460704 </i>
    <i name="e_wo_entrp">    211.50673457 </i>
    <i name="e_0_energy">    211.50567080 </i>
   </energy>
  </scstep>
  <scstep>
   <time name="total">   90.13   90.21</time>
   <dipole>
    <v name="dipole">      0.00000000       0.00000000       0.42979289 </v>
    <i name="Tr[quadrupol]">    -53.84297325 </i>
    <i name="Echarged">      0.00000000 </i>
    <i name="Edipol_quadrupol">      0.00000000 </i>
    <i name="Eion">      0.00000000 </i>
   </dipole>
   <energy>
    <i name="e_fr_energy">      3.70633919 </i>
    <i name="e_wo_entrp">      3.70635126 </i>
    <i name="e_0_energy">      3.70634523 </i>
   </energy>
  </scstep>
  <scstep>
   <time name="total">   86.99   87.04</time>
   <dipole>
    <v name="dipole">      0.00000000       0.00000000       0.42979289 </v>
    <i name="Tr[quadrupol]">    -53.84297325 </i>
    <i name="Echarged">      0.00000000 </i>
    <i name="Edipol_quadrupol">      0.00000000 </i>
    <i name="Eion">      0.00000000 </i>
   </dipole>
   <energy>
    <i name="e_fr_energy">    -20.50301022 </i>
    <i name="e_wo_entrp">    -20.50301022 </i>
    <i name="e_0_energy">    -20.50301022 </i>
   </energy>
  </scstep>
  <scstep>
   <time name="total">   85.65   85.69</time>
   <dipole>
    <v name="dipole">      0.00000000       0.00000000       0.42979289 </v>
    <i name="Tr[quadrupol]">    -53.84297325 </i>
    <i name="Echarged">      0.00000000 </i>
    <i name="Edipol_quadrupol">      0.00000000 </i>
    <i name="Eion">      0.00000000 </i>
   </dipole>
   <energy>
    <i name="e_fr_energy">    -21.39154666 </i>
    <i name="e_wo_entrp">    -21.39154666 </i>
    <i name="e_0_energy">    -21.39154666 </i>
   </energy>
  </scstep>
  <scstep>
   <time name="total">   96.47   96.51</time>
   <dipole>
    <v name="dipole">      0.00000000       0.00000000       0.42979289 </v>
    <i name="Tr[quadrupol]">    -53.84297325 </i>
    <i name="Echarged">      0.00000000 </i>
    <i name="Edipol_quadrupol">      0.00000000 </i>
    <i name="Eion">      0.00000000 </i>
   </dipole>
   <energy>
    <i name="e_fr_energy">    -21.41662662 </i>
    <i name="e_wo_entrp">    -21.41662662 </i>
    <i name="e_0_energy">    -21.41662662 </i>
   </energy>
  </scstep>
  <scstep>
   <time name="total">   75.90   75.93</time>
   <dipole>
    <v name="dipole">      0.00000000       0.00000000       0.67982380 </v>
    <i name="Tr[quadrupol]">    -62.54450545 </i>
    <i name="Echarged">      0.00000000 </i>
    <i name="Edipol_quadrupol">      0.00000000 </i>
    <i name="Eion">      0.00000000 </i>
   </dipole>
   <energy>
    <i name="e_fr_energy">    -17.53876088 </i>
    <i name="e_wo_entrp">    -17.53876088 </i>
    <i name="e_0_energy">    -17.53876088 </i>
   </energy>
  </scstep>
  <scstep>
   <time name="total">   76.10   76.13</time>
   <dipole>
    <v name="dipole">      0.00000000       0.00000000       0.09616793 </v>
    <i name="Tr[quadrupol]">    -50.99597984 </i>
    <i name="Echarged">      0.00000000 </i>
    <i name="Edipol_quadrupol">      0.00000000 </i>
    <i name="Eion">      0.00000000 </i>
   </dipole>
   <energy>
    <i name="e_fr_energy">    -21.04591969 </i>
    <i name="e_wo_entrp">    -21.04591969 </i>
    <i name="e_0_energy">    -21.04591969 </i>
   </energy>
  </scstep>
  <scstep>
   <time name="total">   76.24   76.27</time>
   <dipole>
    <v name="dipole">      0.00000000       0.00000000       0.14822310 </v>
    <i name="Tr[quadrupol]">    -52.17804624 </i>
    <i name="Echarged">      0.00000000 </i>
    <i name="Edipol_quadrupol">      0.00000000 </i>
    <i name="Eion">      0.00000000 </i>
   </dipole>
   <energy>
    <i name="e_fr_energy">    -21.47151621 </i>
    <i name="e_wo_entrp">    -21.47151621 </i>
    <i name="e_0_energy">    -21.47151621 </i>
   </energy>
  </scstep>
  <scstep>
   <time name="total">   76.44   76.49</time>
   <dipole>
    <v name="dipole">      0.00000000       0.00000000       0.22996298 </v>
    <i name="Tr[quadrupol]">    -53.70711056 </i>
    <i name="Echarged">      0.00000000 </i>
    <i name="Edipol_quadrupol">      0.00000000 </i>
    <i name="Eion">      0.00000000 </i>
   </dipole>
   <energy>
    <i name="e_fr_energy">    -21.64780301 </i>
    <i name="e_wo_entrp">    -21.64780301 </i>
    <i name="e_0_energy">    -21.64780301 </i>
   </energy>
  </scstep>
  <scstep>
   <time name="total">   76.42   76.45</time>
   <dipole>
    <v name="dipole">      0.00000000       0.00000000       0.19462472 </v>
    <i name="Tr[quadrupol]">    -52.68945164 </i>
    <i name="Echarged">      0.00000000 </i>
    <i name="Edipol_quadrupol">      0.00000000 </i>
    <i name="Eion">      0.00000000 </i>
   </dipole>
   <energy>
    <i name="e_fr_energy">    -21.70363346 </i>
    <i name="e_wo_entrp">    -21.70363346 </i>
    <i name="e_0_energy">    -21.70363346 </i>
   </energy>
  </scstep>
  <scstep>
   <time name="total">   76.28   76.32</time>
   <dipole>
    <v name="dipole">      0.00000000       0.00000000       0.19469584 </v>
    <i name="Tr[quadrupol]">    -52.64474417 </i>
    <i name="Echarged">      0.00000000 </i>
    <i name="Edipol_quadrupol">      0.00000000 </i>
    <i name="Eion">      0.00000000 </i>
   </dipole>
   <energy>
    <i name="e_fr_energy">    -21.73151012 </i>
    <i name="e_wo_entrp">    -21.73151012 </i>
    <i name="e_0_energy">    -21.73151012 </i>
   </energy>
  </scstep>
  <scstep>
   <time name="total">   76.12   76.15</time>
   <dipole>
    <v name="dipole">      0.00000000       0.00000000       0.20206593 </v>
    <i name="Tr[quadrupol]">    -52.83315846 </i>
    <i name="Echarged">      0.00000000 </i>
    <i name="Edipol_quadrupol">      0.00000000 </i>
    <i name="Eion">      0.00000000 </i>
   </dipole>
   <energy>
    <i name="e_fr_energy">    -21.73929650 </i>
    <i name="e_wo_entrp">    -21.73929650 </i>
    <i name="e_0_energy">    -21.73929650 </i>
   </energy>
  </scstep>
  <scstep>
   <time name="total">   76.20   76.23</time>
   <dipole>
    <v name="dipole">      0.00000000       0.00000000       0.19711500 </v>
    <i name="Tr[quadrupol]">    -52.68198201 </i>
    <i name="Echarged">      0.00000000 </i>
    <i name="Edipol_quadrupol">      0.00000000 </i>
    <i name="Eion">      0.00000000 </i>
   </dipole>
   <energy>
    <i name="e_fr_energy">    -21.74334079 </i>
    <i name="e_wo_entrp">    -21.74334079 </i>
    <i name="e_0_energy">    -21.74334079 </i>
   </energy>
  </scstep>
  <scstep>
   <time name="total">   75.98   76.03</time>
   <dipole>
    <v name="dipole">      0.00000000       0.00000000       0.20270930 </v>
    <i name="Tr[quadrupol]">    -52.77269433 </i>
    <i name="Echarged">      0.00000000 </i>
    <i name="Edipol_quadrupol">      0.00000000 </i>
    <i name="Eion">      0.00000000 </i>
   </dipole>
   <energy>
    <i name="e_fr_energy">    -21.74476149 </i>
    <i name="e_wo_entrp">    -21.74476149 </i>
    <i name="e_0_energy">    -21.74476149 </i>
   </energy>
  </scstep>
  <scstep>
   <time name="total">   76.16   76.21</time>
   <dipole>
    <v name="dipole">      0.00000000       0.00000000       0.20152051 </v>
    <i name="Tr[quadrupol]">    -52.73517303 </i>
    <i name="Echarged">      0.00000000 </i>
    <i name="Edipol_quadrupol">      0.00000000 </i>
    <i name="Eion">      0.00000000 </i>
   </dipole>
   <energy>
    <i name="e_fr_energy">    -21.74537963 </i>
    <i name="e_wo_entrp">    -21.74537963 </i>
    <i name="e_0_energy">    -21.74537963 </i>
   </energy>
  </scstep>
  <scstep>
   <time name="total">   76.00   76.03</time>
   <dipole>
    <v name="dipole">      0.00000000       0.00000000       0.20150241 </v>
    <i name="Tr[quadrupol]">    -52.74149638 </i>
    <i name="Echarged">      0.00000000 </i>
    <i name="Edipol_quadrupol">      0.00000000 </i>
    <i name="Eion">      0.00000000 </i>
   </dipole>
   <energy>
    <i name="e_fr_energy">    -21.74564876 </i>
    <i name="e_wo_entrp">    -21.74564876 </i>
    <i name="e_0_energy">    -21.74564876 </i>
   </energy>
  </scstep>
  <scstep>
   <time name="total">   76.28   76.30</time>
   <dipole>
    <v name="dipole">      0.00000000       0.00000000       0.20114522 </v>
    <i name="Tr[quadrupol]">    -52.73981038 </i>
    <i name="Echarged">      0.00000000 </i>
    <i name="Edipol_quadrupol">      0.00000000 </i>
    <i name="Eion">      0.00000000 </i>
   </dipole>
   <energy>
    <i name="e_fr_energy">    -21.74579406 </i>
    <i name="e_wo_entrp">    -21.74579406 </i>
    <i name="e_0_energy">    -21.74579406 </i>
   </energy>
  </scstep>
  <scstep>
   <time name="total">   76.32   76.36</time>
   <dipole>
    <v name="dipole">      0.00000000       0.00000000       0.20175986 </v>
    <i name="Tr[quadrupol]">    -52.75617535 </i>
    <i name="Echarged">      0.00000000 </i>
    <i name="Edipol_quadrupol">      0.00000000 </i>
    <i name="Eion">      0.00000000 </i>
   </dipole>
   <energy>
    <i name="e_fr_energy">    -21.74586350 </i>
    <i name="e_wo_entrp">    -21.74586350 </i>
    <i name="e_0_energy">    -21.74586350 </i>
   </energy>
  </scstep>
  <scstep>
   <time name="total">   76.26   76.28</time>
   <dipole>
    <v name="dipole">      0.00000000       0.00000000       0.20082322 </v>
    <i name="Tr[quadrupol]">    -52.73597072 </i>
    <i name="Echarged">      0.00000000 </i>
    <i name="Edipol_quadrupol">      0.00000000 </i>
    <i name="Eion">      0.00000000 </i>
   </dipole>
   <energy>
    <i name="e_fr_energy">    -21.74589079 </i>
    <i name="e_wo_entrp">    -21.74589079 </i>
    <i name="e_0_energy">    -21.74589079 </i>
   </energy>
  </scstep>
  <scstep>
   <time name="total">   75.94   75.96</time>
   <dipole>
    <v name="dipole">      0.00000000       0.00000000       0.20121667 </v>
    <i name="Tr[quadrupol]">    -52.74760504 </i>
    <i name="Echarged">      0.00000000 </i>
    <i name="Edipol_quadrupol">      0.00000000 </i>
    <i name="Eion">      0.00000000 </i>
   </dipole>
   <energy>
    <i name="e_fr_energy">    -21.74590094 </i>
    <i name="e_wo_entrp">    -21.74590094 </i>
    <i name="e_0_energy">    -21.74590094 </i>
   </energy>
  </scstep>
  <scstep>
   <time name="total">   76.20   76.23</time>
   <dipole>
    <v name="dipole">      0.00000000       0.00000000       0.20104157 </v>
    <i name="Tr[quadrupol]">    -52.74369184 </i>
    <i name="Echarged">      0.00000000 </i>
    <i name="Edipol_quadrupol">      0.00000000 </i>
    <i name="Eion">      0.00000000 </i>
   </dipole>
   <energy>
    <i name="e_fr_energy">    -21.74590588 </i>
    <i name="e_wo_entrp">    -21.74590588 </i>
    <i name="e_0_energy">    -21.74590588 </i>
   </energy>
  </scstep>
  <scstep>
   <time name="total">   76.16   76.19</time>
   <dipole>
    <v name="dipole">      0.00000000       0.00000000       0.20120730 </v>
    <i name="Tr[quadrupol]">    -52.74698226 </i>
    <i name="Echarged">      0.00000000 </i>
    <i name="Edipol_quadrupol">      0.00000000 </i>
    <i name="Eion">      0.00000000 </i>
   </dipole>
   <energy>
    <i name="e_fr_energy">    -21.74590792 </i>
    <i name="e_wo_entrp">    -21.74590792 </i>
    <i name="e_0_energy">    -21.74590792 </i>
   </energy>
  </scstep>
  <scstep>
   <time name="total">   76.13   76.16</time>
   <dipole>
    <v name="dipole">      0.00000000       0.00000000       0.20107399 </v>
    <i name="Tr[quadrupol]">    -52.74356804 </i>
    <i name="Echarged">      0.00000000 </i>
    <i name="Edipol_quadrupol">      0.00000000 </i>
    <i name="Eion">      0.00000000 </i>
   </dipole>
   <energy>
    <i name="e_fr_energy">    -21.74590865 </i>
    <i name="e_wo_entrp">    -21.74590865 </i>
    <i name="e_0_energy">    -21.74590865 </i>
   </energy>
  </scstep>
  <scstep>
   <time name="total">   76.08   76.11</time>
   <dipole>
    <v name="dipole">      0.00000000       0.00000000       0.20114207 </v>
    <i name="Tr[quadrupol]">    -52.74535186 </i>
    <i name="Echarged">      0.00000000 </i>
    <i name="Edipol_quadrupol">      0.00000000 </i>
    <i name="Eion">      0.00000000 </i>
   </dipole>
   <energy>
    <i name="e_fr_energy">    -21.74590894 </i>
    <i name="e_wo_entrp">    -21.74590894 </i>
    <i name="e_0_energy">    -21.74590894 </i>
   </energy>
  </scstep>
  <scstep>
   <time name="total">   76.06   76.09</time>
   <dipole>
    <v name="dipole">      0.00000000       0.00000000       0.20112236 </v>
    <i name="Tr[quadrupol]">    -52.74480063 </i>
    <i name="Echarged">      0.00000000 </i>
    <i name="Edipol_quadrupol">      0.00000000 </i>
    <i name="Eion">      0.00000000 </i>
   </dipole>
   <energy>
    <i name="e_fr_energy">    -21.74590905 </i>
    <i name="e_wo_entrp">    -21.74590905 </i>
    <i name="e_0_energy">    -21.74590905 </i>
   </energy>
  </scstep>
  <scstep>
   <time name="total">   57.51   57.54</time>
   <dipole>
    <v name="dipole">      0.00000000       0.00000000       0.20114439 </v>
    <i name="Tr[quadrupol]">    -52.74516394 </i>
    <i name="Echarged">      0.00000000 </i>
    <i name="Edipol_quadrupol">      0.00000000 </i>
    <i name="Eion">      0.00000000 </i>
   </dipole>
   <energy>
    <i name="alphaZ">     57.12354930 </i>
    <i name="ewald">  12079.28848830 </i>
    <i name="hartreedc"> -13648.30099797 </i>
    <i name="XCdc">     62.12525132 </i>
    <i name="pawpsdc">   1174.77954163 </i>
    <i name="pawaedc">  -1153.79629194 </i>
    <i name="eentropy">     -0.00000000 </i>
    <i name="bandstr">   -430.90962624 </i>
    <i name="atom">   1837.94417650 </i>
    <i name="e_fr_energy">    -21.74590910 </i>
    <i name="e_wo_entrp">    -21.74590910 </i>
    <i name="e_0_energy">    -21.74590910 </i>
   </energy>
  </scstep>
  <structure>
   <crystal>
    <varray name="basis" >
     <v>       1.58218970      -2.74043224       0.00000000 </v>
     <v>       1.58218970       2.74043224       0.00000000 </v>
     <v>       0.00000000       0.00000000      34.96267827 </v>
    </varray>
    <i name="volume">    303.18821061 </i>
    <varray name="rec_basis" >
     <v>       0.31601773      -0.18245297       0.00000000 </v>
     <v>       0.31601773       0.18245297       0.00000000 </v>
     <v>       0.00000000       0.00000000       0.02860193 </v>
    </varray>
   </crystal>
   <varray name="positions" >
    <v>       0.66666700       0.33333300       0.10664700 </v>
    <v>       0.33333300       0.66666700       0.06198962 </v>
    <v>       0.33333300       0.66666700       0.15130538 </v>
   </varray>
  </structure>
  <varray name="forces" >
   <v>       0.00000044       0.00007388      -0.02956365 </v>
   <v>      -0.00000001      -0.00003701      -0.18579532 </v>
   <v>      -0.00000043      -0.00003687       0.21535897 </v>
  </varray>
  <varray name="stress" >
   <v>       5.36402369       0.00000025      -0.00000116 </v>
   <v>       0.00000018       5.36383545      -0.00000078 </v>
   <v>      -0.00000112      -0.00000078       5.18576125 </v>
  </varray>
  <energy>
   <i name="e_fr_energy">    -21.74590910 </i>
   <i name="e_wo_entrp">    -21.74590910 </i>
   <i name="e_0_energy">     -0.00000000 </i>
  </energy>
  <time name="totalsc"> 2041.29 2042.33</time>
  <eigenvalues>
   <array>
    <dimension dim="1">band</dimension>
    <dimension dim="2">kpoint</dimension>
    <dimension dim="3">spin</dimension>
    <field>eigene</field>
    <field>occ</field>
    <set>
     <set comment="spin 1">
      <set comment="kpoint 1">
       <r>  -41.9445    1.0000 </r>
       <r>  -41.9445    1.0000 </r>
       <r>  -39.5896    1.0000 </r>
       <r>  -39.5896    1.0000 </r>
       <r>  -39.4293    1.0000 </r>
       <r>  -39.4293    1.0000 </r>
       <r>  -19.5862    1.0000 </r>
       <r>  -19.5862    1.0000 </r>
       <r>  -18.2566    1.0000 </r>
       <r>  -18.2566    1.0000 </r>
       <r>  -11.1078    1.0000 </r>
       <r>  -11.1078    1.0000 </r>
       <r>   -8.0742    1.0000 </r>
       <r>   -8.0742    1.0000 </r>
       <r>   -8.0093    1.0000 </r>
       <r>   -8.0093    1.0000 </r>
       <r>   -7.2175    1.0000 </r>
       <r>   -7.2174    1.0000 </r>
       <r>   -6.9488    1.0000 </r>
       <r>   -6.9488    1.0000 </r>
       <r>   -6.8640    1.0000 </r>
       <r>   -6.8640    1.0000 </r>
       <r>   -5.4580    1.0000 </r>
       <r>   -5.4580    1.0000 </r>
       <r>   -2.6387    0.0000 </r>
       <r>   -2.6387    0.0000 </r>
       <r>   -2.5596    0.0000 </r>
       <r>   -2.5596    0.0000 </r>
       <r>   -2.3556    0.0000 </r>
       <r>   -2.3556    0.0000 </r>
       <r>   -2.3536    0.0000 </r>
       <r>   -2.3536    0.0000 </r>
       <r>    0.3443    0.0000 </r>
       <r>    0.3443    0.0000 </r>
       <r>    1.0486    0.0000 </r>
       <r>    1.0486    0.0000 </r>
       <r>    1.7931    0.0000 </r>
       <r>    1.8789    0.0000 </r>
       <r>    2.3653    0.0000 </r>
       <r>    3.2192    0.0000 </r>
      </set>
      <set comment="kpoint 2">
       <r>  -41.9516    1.0000 </r>
       <r>  -41.9516    1.0000 </r>
       <r>  -39.5928    1.0000 </r>
       <r>  -39.5928    1.0000 </r>
       <r>  -39.4471    1.0000 </r>
       <r>  -39.4470    1.0000 </r>
       <r>  -19.4806    1.0000 </r>
       <r>  -19.4802    1.0000 </r>
       <r>  -18.2134    1.0000 </r>
       <r>  -18.2130    1.0000 </r>
       <r>  -10.9881    1.0000 </r>
       <r>  -10.9879    1.0000 </r>
       <r>   -8.2752    1.0000 </r>
       <r>   -8.2752    1.0000 </r>
       <r>   -7.9299    1.0000 </r>
       <r>   -7.9297    1.0000 </r>
       <r>   -7.7033    1.0000 </r>
       <r>   -7.7028    1.0000 </r>
       <r>   -7.0742    1.0000 </r>
       <r>   -7.0739    1.0000 </r>
       <r>   -6.5833    1.0000 </r>
       <r>   -6.5821    1.0000 </r>
       <r>   -5.5095    1.0000 </r>
       <r>   -5.5087    1.0000 </r>
       <r>   -2.7447    0.0000 </r>
       <r>   -2.7404    0.0000 </r>
       <r>   -2.6385    0.0000 </r>
       <r>   -2.6339    0.0000 </r>
       <r>   -2.4840    0.0000 </r>
       <r>   -2.4810    0.0000 </r>
       <r>   -2.4019    0.0000 </r>
       <r>   -2.3987    0.0000 </r>
       <r>    0.5211    0.0000 </r>
       <r>    0.5239    0.0000 </r>
       <r>    1.4793    0.0000 </r>
       <r>    1.4823    0.0000 </r>
       <r>    1.9407    0.0000 </r>
       <r>    1.9901    0.0000 </r>
       <r>    2.5109    0.0000 </r>
       <r>    2.7577    0.0000 </r>
      </set>
      <set comment="kpoint 3">
       <r>  -41.9715    1.0000 </r>
       <r>  -41.9714    1.0000 </r>
       <r>  -39.6055    1.0000 </r>
       <r>  -39.6056    1.0000 </r>
       <r>  -39.4904    1.0000 </r>
       <r>  -39.4904    1.0000 </r>
       <r>  -19.1799    1.0000 </r>
       <r>  -19.1791    1.0000 </r>
       <r>  -18.0903    1.0000 </r>
       <r>  -18.0894    1.0000 </r>
       <r>  -10.6871    1.0000 </r>
       <r>  -10.6868    1.0000 </r>
       <r>   -8.8037    1.0000 </r>
       <r>   -8.8031    1.0000 </r>
       <r>   -8.3632    1.0000 </r>
       <r>   -8.3623    1.0000 </r>
       <r>   -7.6240    1.0000 </r>
       <r>   -7.6223    1.0000 </r>
       <r>   -7.4657    1.0000 </r>
       <r>   -7.4638    1.0000 </r>
       <r>   -6.5033    1.0000 </r>
       <r>   -6.5020    1.0000 </r>
       <r>   -5.7417    1.0000 </r>
       <r>   -5.7404    1.0000 </r>
       <r>   -3.0917    0.0000 </r>
       <r>   -3.0905    0.0000 </r>
       <r>   -2.7908    0.0000 </r>
       <r>   -2.7900    0.0000 </r>
       <r>   -2.7404    0.0000 </r>
       <r>   -2.7398    0.0000 </r>
       <r>   -2.0020    0.0000 </r>
       <r>   -2.0013    0.0000 </r>
       <r>    0.9343    0.0000 </r>
       <r>    0.9366    0.0000 </r>
       <r>    2.2362    0.0000 </r>
       <r>    2.2371    0.0000 </r>
       <r>    2.4516    0.0000 </r>
       <r>    2.4569    0.0000 </r>
       <r>    3.0436    0.0000 </r>
       <r>    3.2305    0.0000 </r>
      </set>
      <set comment="kpoint 4">
       <r>  -41.9998    1.0000 </r>
       <r>  -41.9998    1.0000 </r>
       <r>  -39.6393    1.0000 </r>
       <r>  -39.6393    1.0000 </r>
       <r>  -39.5305    1.0000 </r>
       <r>  -39.5304    1.0000 </r>
       <r>  -18.7346    1.0000 </r>
       <r>  -18.7335    1.0000 </r>
       <r>  -17.9090    1.0000 </r>
       <r>  -17.9078    1.0000 </r>
       <r>  -10.4703    1.0000 </r>
       <r>  -10.4701    1.0000 </r>
       <r>   -9.2595    1.0000 </r>
       <r>   -9.2569    1.0000 </r>
       <r>   -9.0320    1.0000 </r>
       <r>   -9.0292    1.0000 </r>
       <r>   -7.9103    1.0000 </r>
       <r>   -7.9099    1.0000 </r>
       <r>   -7.1909    1.0000 </r>
       <r>   -7.1903    1.0000 </r>
       <r>   -6.7609    1.0000 </r>
       <r>   -6.7602    1.0000 </r>
       <r>   -6.1712    1.0000 </r>
       <r>   -6.1704    1.0000 </r>
       <r>   -3.2322    0.0000 </r>
       <r>   -3.2316    0.0000 </r>
       <r>   -3.0193    0.0000 </r>
       <r>   -3.0187    0.0000 </r>
       <r>   -2.4470    0.0000 </r>
       <r>   -2.4468    0.0000 </r>
       <r>   -1.5818    0.0000 </r>
       <r>   -1.5814    0.0000 </r>
       <r>    1.5121    0.0000 </r>
       <r>    1.5138    0.0000 </r>
       <r>    2.6991    0.0000 </r>
       <r>    2.7048    0.0000 </r>
       <r>    3.0808    0.0000 </r>
       <r>    3.1630    0.0000 </r>
       <r>    3.4991    0.0000 </r>
       <r>    3.8730    0.0000 </r>
      </set>
      <set comment="kpoint 5">
       <r>  -42.0296    1.0000 </r>
       <r>  -42.0296    1.0000 </r>
       <r>  -39.6919    1.0000 </r>
       <r>  -39.6919    1.0000 </r>
       <r>  -39.5484    1.0000 </r>
       <r>  -39.5484    1.0000 </r>
       <r>  -18.2346    1.0000 </r>
       <r>  -18.2330    1.0000 </r>
       <r>  -17.7094    1.0000 </r>
       <r>  -17.7077    1.0000 </r>
       <r>  -10.7158    1.0000 </r>
       <r>  -10.7158    1.0000 </r>
       <r>   -9.6542    1.0000 </r>
       <r>   -9.6518    1.0000 </r>
       <r>   -9.3567    1.0000 </r>
       <r>   -9.3539    1.0000 </r>
       <r>   -8.2815    1.0000 </r>
       <r>   -8.2815    1.0000 </r>
       <r>   -7.0806    1.0000 </r>
       <r>   -7.0802    1.0000 </r>
       <r>   -6.7561    1.0000 </r>
       <r>   -6.7560    1.0000 </r>
       <r>   -6.4133    1.0000 </r>
       <r>   -6.4130    1.0000 </r>
       <r>   -3.1803    0.0000 </r>
       <r>   -3.1802    0.0000 </r>
       <r>   -3.0469    0.0000 </r>
       <r>   -3.0464    0.0000 </r>
       <r>   -1.9481    0.0000 </r>
       <r>   -1.9479    0.0000 </r>
       <r>   -1.2786    0.0000 </r>
       <r>   -1.2782    0.0000 </r>
       <r>    2.0934    0.0000 </r>
       <r>    2.0947    0.0000 </r>
       <r>    2.5156    0.0000 </r>
       <r>    2.5231    0.0000 </r>
       <r>    2.8036    0.0000 </r>
       <r>    2.8065    0.0000 </r>
       <r>    3.4357    0.0000 </r>
       <r>    3.4672    0.0000 </r>
      </set>
      <set comment="kpoint 6">
       <r>  -42.0523    1.0000 </r>
       <r>  -42.0523    1.0000 </r>
       <r>  -39.7357    1.0000 </r>
       <r>  -39.7357    1.0000 </r>
       <r>  -39.5542    1.0000 </r>
       <r>  -39.5542    1.0000 </r>
       <r>  -17.8177    1.0000 </r>
       <r>  -17.8159    1.0000 </r>
       <r>  -17.5485    1.0000 </r>
       <r>  -17.5467    1.0000 </r>
       <r>  -11.0969    1.0000 </r>
       <r>  -11.0967    1.0000 </r>
       <r>  -10.1053    1.0000 </r>
       <r>  -10.1048    1.0000 </r>
       <r>   -9.4644    1.0000 </r>
       <r>   -9.4635    1.0000 </r>
       <r>   -8.5225    1.0000 </r>
       <r>   -8.5225    1.0000 </r>
       <r>   -7.2762    1.0000 </r>
       <r>   -7.2762    1.0000 </r>
       <r>   -6.4638    1.0000 </r>
       <r>   -6.4637    1.0000 </r>
       <r>   -6.2323    1.0000 </r>
       <r>   -6.2321    1.0000 </r>
       <r>   -3.1708    0.0000 </r>
       <r>   -3.1707    0.0000 </r>
       <r>   -2.7726    0.0000 </r>
       <r>   -2.7720    0.0000 </r>
       <r>   -1.5784    0.0000 </r>
       <r>   -1.5780    0.0000 </r>
       <r>   -1.1142    0.0000 </r>
       <r>   -1.1140    0.0000 </r>
       <r>    1.3358    0.0000 </r>
       <r>    1.3359    0.0000 </r>
       <r>    2.4903    0.0000 </r>
       <r>    2.5028    0.0000 </r>
       <r>    2.7891    0.0000 </r>
       <r>    2.7994    0.0000 </r>
       <r>    3.7632    0.0000 </r>
       <r>    4.1804    0.0000 </r>
      </set>
      <set comment="kpoint 7">
       <r>  -42.0608    1.0000 </r>
       <r>  -42.0608    1.0000 </r>
       <r>  -39.7521    1.0000 </r>
       <r>  -39.7521    1.0000 </r>
       <r>  -39.5556    1.0000 </r>
       <r>  -39.5555    1.0000 </r>
       <r>  -17.6494    1.0000 </r>
       <r>  -17.6493    1.0000 </r>
       <r>  -17.4848    1.0000 </r>
       <r>  -17.4848    1.0000 </r>
       <r>  -11.2604    1.0000 </r>
       <r>  -11.2604    1.0000 </r>
       <r>  -10.2727    1.0000 </r>
       <r>  -10.2727    1.0000 </r>
       <r>   -9.5445    1.0000 </r>
       <r>   -9.5445    1.0000 </r>
       <r>   -8.6055    1.0000 </r>
       <r>   -8.6055    1.0000 </r>
       <r>   -7.3397    1.0000 </r>
       <r>   -7.3398    1.0000 </r>
       <r>   -6.3607    1.0000 </r>
       <r>   -6.3607    1.0000 </r>
       <r>   -6.0648    1.0000 </r>
       <r>   -6.0648    1.0000 </r>
       <r>   -3.1384    0.0000 </r>
       <r>   -3.1384    0.0000 </r>
       <r>   -2.6126    0.0000 </r>
       <r>   -2.6126    0.0000 </r>
       <r>   -1.4578    0.0000 </r>
       <r>   -1.4578    0.0000 </r>
       <r>   -1.0642    0.0000 </r>
       <r>   -1.0642    0.0000 </r>
       <r>    0.8079    0.0000 </r>
       <r>    0.8079    0.0000 </r>
       <r>    2.5466    0.0000 </r>
       <r>    2.5466    0.0000 </r>
       <r>    2.9959    0.0000 </r>
       <r>    2.9959    0.0000 </r>
       <r>    3.8131    0.0000 </r>
       <r>    4.5833    0.0000 </r>
      </set>
      <set comment="kpoint 8">
       <r>  -42.0523    1.0000 </r>
       <r>  -42.0523    1.0000 </r>
       <r>  -39.7357    1.0000 </r>
       <r>  -39.7356    1.0000 </r>
       <r>  -39.5542    1.0000 </r>
       <r>  -39.5542    1.0000 </r>
       <r>  -17.8177    1.0000 </r>
       <r>  -17.8159    1.0000 </r>
       <r>  -17.5485    1.0000 </r>
       <r>  -17.5467    1.0000 </r>
       <r>  -11.0969    1.0000 </r>
       <r>  -11.0967    1.0000 </r>
       <r>  -10.1053    1.0000 </r>
       <r>  -10.1048    1.0000 </r>
       <r>   -9.4644    1.0000 </r>
       <r>   -9.4635    1.0000 </r>
       <r>   -8.5225    1.0000 </r>
       <r>   -8.5225    1.0000 </r>
       <r>   -7.2762    1.0000 </r>
       <r>   -7.2762    1.0000 </r>
       <r>   -6.4638    1.0000 </r>
       <r>   -6.4637    1.0000 </r>
       <r>   -6.2322    1.0000 </r>
       <r>   -6.2322    1.0000 </r>
       <r>   -3.1709    0.0000 </r>
       <r>   -3.1706    0.0000 </r>
       <r>   -2.7726    0.0000 </r>
       <r>   -2.7720    0.0000 </r>
       <r>   -1.5784    0.0000 </r>
       <r>   -1.5780    0.0000 </r>
       <r>   -1.1142    0.0000 </r>
       <r>   -1.1140    0.0000 </r>
       <r>    1.3359    0.0000 </r>
       <r>    1.3359    0.0000 </r>
       <r>    2.4903    0.0000 </r>
       <r>    2.5028    0.0000 </r>
       <r>    2.7891    0.0000 </r>
       <r>    2.7994    0.0000 </r>
       <r>    3.7466    0.0000 </r>
       <r>    4.5189    0.0000 </r>
      </set>
      <set comment="kpoint 9">
       <r>  -42.0296    1.0000 </r>
       <r>  -42.0296    1.0000 </r>
       <r>  -39.6919    1.0000 </r>
       <r>  -39.6918    1.0000 </r>
       <r>  -39.5484    1.0000 </r>
       <r>  -39.5484    1.0000 </r>
       <r>  -18.2346    1.0000 </r>
       <r>  -18.2330    1.0000 </r>
       <r>  -17.7094    1.0000 </r>
       <r>  -17.7078    1.0000 </r>
       <r>  -10.7158    1.0000 </r>
       <r>  -10.7158    1.0000 </r>
       <r>   -9.6542    1.0000 </r>
       <r>   -9.6518    1.0000 </r>
       <r>   -9.3567    1.0000 </r>
       <r>   -9.3539    1.0000 </r>
       <r>   -8.2816    1.0000 </r>
       <r>   -8.2814    1.0000 </r>
       <r>   -7.0805    1.0000 </r>
       <r>   -7.0802    1.0000 </r>
       <r>   -6.7561    1.0000 </r>
       <r>   -6.7560    1.0000 </r>
       <r>   -6.4133    1.0000 </r>
       <r>   -6.4131    1.0000 </r>
       <r>   -3.1803    0.0000 </r>
       <r>   -3.1801    0.0000 </r>
       <r>   -3.0469    0.0000 </r>
       <r>   -3.0464    0.0000 </r>
       <r>   -1.9480    0.0000 </r>
       <r>   -1.9480    0.0000 </r>
       <r>   -1.2786    0.0000 </r>
       <r>   -1.2783    0.0000 </r>
       <r>    2.0933    0.0000 </r>
       <r>    2.0947    0.0000 </r>
       <r>    2.5156    0.0000 </r>
       <r>    2.5231    0.0000 </r>
       <r>    2.8036    0.0000 </r>
       <r>    2.8065    0.0000 </r>
       <r>    3.4331    0.0000 </r>
       <r>    3.4570    0.0000 </r>
      </set>
      <set comment="kpoint 10">
       <r>  -41.9998    1.0000 </r>
       <r>  -41.9998    1.0000 </r>
       <r>  -39.6394    1.0000 </r>
       <r>  -39.6392    1.0000 </r>
       <r>  -39.5305    1.0000 </r>
       <r>  -39.5304    1.0000 </r>
       <r>  -18.7347    1.0000 </r>
       <r>  -18.7335    1.0000 </r>
       <r>  -17.9090    1.0000 </r>
       <r>  -17.9078    1.0000 </r>
       <r>  -10.4703    1.0000 </r>
       <r>  -10.4701    1.0000 </r>
       <r>   -9.2595    1.0000 </r>
       <r>   -9.2569    1.0000 </r>
       <r>   -9.0320    1.0000 </r>
       <r>   -9.0292    1.0000 </r>
       <r>   -7.9103    1.0000 </r>
       <r>   -7.9099    1.0000 </r>
       <r>   -7.1909    1.0000 </r>
       <r>   -7.1903    1.0000 </r>
       <r>   -6.7609    1.0000 </r>
       <r>   -6.7602    1.0000 </r>
       <r>   -6.1712    1.0000 </r>
       <r>   -6.1704    1.0000 </r>
       <r>   -3.2322    0.0000 </r>
       <r>   -3.2316    0.0000 </r>
       <r>   -3.0193    0.0000 </r>
       <r>   -3.0187    0.0000 </r>
       <r>   -2.4471    0.0000 </r>
       <r>   -2.4468    0.0000 </r>
       <r>   -1.5818    0.0000 </r>
       <r>   -1.5814    0.0000 </r>
       <r>    1.5120    0.0000 </r>
       <r>    1.5138    0.0000 </r>
       <r>    2.6992    0.0000 </r>
       <r>    2.7048    0.0000 </r>
       <r>    3.0732    0.0000 </r>
       <r>    3.1804    0.0000 </r>
       <r>    3.5704    0.0000 </r>
       <r>    3.7743    0.0000 </r>
      </set>
      <set comment="kpoint 11">
       <r>  -41.9714    1.0000 </r>
       <r>  -41.9714    1.0000 </r>
       <r>  -39.6056    1.0000 </r>
       <r>  -39.6055    1.0000 </r>
       <r>  -39.4904    1.0000 </r>
       <r>  -39.4904    1.0000 </r>
       <r>  -19.1799    1.0000 </r>
       <r>  -19.1791    1.0000 </r>
       <r>  -18.0902    1.0000 </r>
       <r>  -18.0894    1.0000 </r>
       <r>  -10.6871    1.0000 </r>
       <r>  -10.6868    1.0000 </r>
       <r>   -8.8037    1.0000 </r>
       <r>   -8.8031    1.0000 </r>
       <r>   -8.3632    1.0000 </r>
       <r>   -8.3623    1.0000 </r>
       <r>   -7.6240    1.0000 </r>
       <r>   -7.6223    1.0000 </r>
       <r>   -7.4657    1.0000 </r>
       <r>   -7.4638    1.0000 </r>
       <r>   -6.5033    1.0000 </r>
       <r>   -6.5020    1.0000 </r>
       <r>   -5.7417    1.0000 </r>
       <r>   -5.7404    1.0000 </r>
       <r>   -3.0917    0.0000 </r>
       <r>   -3.0905    0.0000 </r>
       <r>   -2.7908    0.0000 </r>
       <r>   -2.7900    0.0000 </r>
       <r>   -2.7404    0.0000 </r>
       <r>   -2.7398    0.0000 </r>
       <r>   -2.0019    0.0000 </r>
       <r>   -2.0013    0.0000 </r>
       <r>    0.9343    0.0000 </r>
       <r>    0.9367    0.0000 </r>
       <r>    2.2365    0.0000 </r>
       <r>    2.2369    0.0000 </r>
       <r>    2.4518    0.0000 </r>
       <r>    2.4588    0.0000 </r>
       <r>    3.0432    0.0000 </r>
       <r>    3.1229    0.0000 </r>
      </set>
      <set comment="kpoint 12">
       <r>  -41.9516    1.0000 </r>
       <r>  -41.9516    1.0000 </r>
       <r>  -39.5928    1.0000 </r>
       <r>  -39.5927    1.0000 </r>
       <r>  -39.4471    1.0000 </r>
       <r>  -39.4470    1.0000 </r>
       <r>  -19.4806    1.0000 </r>
       <r>  -19.4802    1.0000 </r>
       <r>  -18.2134    1.0000 </r>
       <r>  -18.2130    1.0000 </r>
       <r>  -10.9881    1.0000 </r>
       <r>  -10.9879    1.0000 </r>
       <r>   -8.2752    1.0000 </r>
       <r>   -8.2751    1.0000 </r>
       <r>   -7.9300    1.0000 </r>
       <r>   -7.9297    1.0000 </r>
       <r>   -7.7033    1.0000 </r>
       <r>   -7.7028    1.0000 </r>
       <r>   -7.0742    1.0000 </r>
       <r>   -7.0739    1.0000 </r>
       <r>   -6.5833    1.0000 </r>
       <r>   -6.5822    1.0000 </r>
       <r>   -5.5095    1.0000 </r>
       <r>   -5.5087    1.0000 </r>
       <r>   -2.7447    0.0000 </r>
       <r>   -2.7404    0.0000 </r>
       <r>   -2.6385    0.0000 </r>
       <r>   -2.6339    0.0000 </r>
       <r>   -2.4840    0.0000 </r>
       <r>   -2.4810    0.0000 </r>
       <r>   -2.4019    0.0000 </r>
       <r>   -2.3987    0.0000 </r>
       <r>    0.5211    0.0000 </r>
       <r>    0.5240    0.0000 </r>
       <r>    1.4793    0.0000 </r>
       <r>    1.4823    0.0000 </r>
       <r>    1.9410    0.0000 </r>
       <r>    2.0082    0.0000 </r>
       <r>    2.5108    0.0000 </r>
       <r>    3.0147    0.0000 </r>
      </set>
      <set comment="kpoint 13">
       <r>  -41.9516    1.0000 </r>
       <r>  -41.9516    1.0000 </r>
       <r>  -39.5928    1.0000 </r>
       <r>  -39.5928    1.0000 </r>
       <r>  -39.4471    1.0000 </r>
       <r>  -39.4470    1.0000 </r>
       <r>  -19.4806    1.0000 </r>
       <r>  -19.4802    1.0000 </r>
       <r>  -18.2134    1.0000 </r>
       <r>  -18.2130    1.0000 </r>
       <r>  -10.9881    1.0000 </r>
       <r>  -10.9879    1.0000 </r>
       <r>   -8.2752    1.0000 </r>
       <r>   -8.2751    1.0000 </r>
       <r>   -7.9299    1.0000 </r>
       <r>   -7.9297    1.0000 </r>
       <r>   -7.7033    1.0000 </r>
       <r>   -7.7028    1.0000 </r>
       <r>   -7.0742    1.0000 </r>
       <r>   -7.0739    1.0000 </r>
       <r>   -6.5833    1.0000 </r>
       <r>   -6.5822    1.0000 </r>
       <r>   -5.5095    1.0000 </r>
       <r>   -5.5087    1.0000 </r>
       <r>   -2.7447    0.0000 </r>
       <r>   -2.7404    0.0000 </r>
       <r>   -2.6385    0.0000 </r>
       <r>   -2.6339    0.0000 </r>
       <r>   -2.4840    0.0000 </r>
       <r>   -2.4810    0.0000 </r>
       <r>   -2.4019    0.0000 </r>
       <r>   -2.3987    0.0000 </r>
       <r>    0.5211    0.0000 </r>
       <r>    0.5239    0.0000 </r>
       <r>    1.4793    0.0000 </r>
       <r>    1.4823    0.0000 </r>
       <r>    1.9408    0.0000 </r>
       <r>    2.0899    0.0000 </r>
       <r>    2.5109    0.0000 </r>
       <r>    3.2787    0.0000 </r>
      </set>
      <set comment="kpoint 14">
       <r>  -41.9656    1.0000 </r>
       <r>  -41.9644    1.0000 </r>
       <r>  -39.6008    1.0000 </r>
       <r>  -39.6000    1.0000 </r>
       <r>  -39.4793    1.0000 </r>
       <r>  -39.4767    1.0000 </r>
       <r>  -19.2781    1.0000 </r>
       <r>  -19.2758    1.0000 </r>
       <r>  -18.1300    1.0000 </r>
       <r>  -18.1293    1.0000 </r>
       <r>  -10.7752    1.0000 </r>
       <r>  -10.7724    1.0000 </r>
       <r>   -8.6524    1.0000 </r>
       <r>   -8.6407    1.0000 </r>
       <r>   -8.1432    1.0000 </r>
       <r>   -8.1427    1.0000 </r>
       <r>   -7.7402    1.0000 </r>
       <r>   -7.7148    1.0000 </r>
       <r>   -7.4651    1.0000 </r>
       <r>   -7.4588    1.0000 </r>
       <r>   -6.4067    1.0000 </r>
       <r>   -6.3816    1.0000 </r>
       <r>   -5.6537    1.0000 </r>
       <r>   -5.6483    1.0000 </r>
       <r>   -2.9956    0.0000 </r>
       <r>   -2.9834    0.0000 </r>
       <r>   -2.9004    0.0000 </r>
       <r>   -2.8478    0.0000 </r>
       <r>   -2.6940    0.0000 </r>
       <r>   -2.6675    0.0000 </r>
       <r>   -2.0996    0.0000 </r>
       <r>   -2.0514    0.0000 </r>
       <r>    0.8098    0.0000 </r>
       <r>    0.8126    0.0000 </r>
       <r>    2.0939    0.0000 </r>
       <r>    2.0965    0.0000 </r>
       <r>    2.2947    0.0000 </r>
       <r>    2.3003    0.0000 </r>
       <r>    2.8359    0.0000 </r>
       <r>    2.8765    0.0000 </r>
      </set>
      <set comment="kpoint 15">
       <r>  -41.9908    1.0000 </r>
       <r>  -41.9875    1.0000 </r>
       <r>  -39.6225    1.0000 </r>
       <r>  -39.6216    1.0000 </r>
       <r>  -39.5242    1.0000 </r>
       <r>  -39.5185    1.0000 </r>
       <r>  -18.9061    1.0000 </r>
       <r>  -18.8994    1.0000 </r>
       <r>  -17.9768    1.0000 </r>
       <r>  -17.9756    1.0000 </r>
       <r>  -10.4883    1.0000 </r>
       <r>  -10.4781    1.0000 </r>
       <r>   -9.1249    1.0000 </r>
       <r>   -9.1210    1.0000 </r>
       <r>   -8.6985    1.0000 </r>
       <r>   -8.6887    1.0000 </r>
       <r>   -8.0244    1.0000 </r>
       <r>   -8.0198    1.0000 </r>
       <r>   -7.4276    1.0000 </r>
       <r>   -7.3884    1.0000 </r>
       <r>   -6.4463    1.0000 </r>
       <r>   -6.4174    1.0000 </r>
       <r>   -6.0061    1.0000 </r>
       <r>   -5.9807    1.0000 </r>
       <r>   -3.3086    0.0000 </r>
       <r>   -3.2812    0.0000 </r>
       <r>   -2.9213    0.0000 </r>
       <r>   -2.9110    0.0000 </r>
       <r>   -2.8186    0.0000 </r>
       <r>   -2.7535    0.0000 </r>
       <r>   -1.6331    0.0000 </r>
       <r>   -1.5874    0.0000 </r>
       <r>    1.3134    0.0000 </r>
       <r>    1.3162    0.0000 </r>
       <r>    2.6663    0.0000 </r>
       <r>    2.6901    0.0000 </r>
       <r>    2.8647    0.0000 </r>
       <r>    2.8709    0.0000 </r>
       <r>    3.5971    0.0000 </r>
       <r>    4.2896    0.0000 </r>
      </set>
      <set comment="kpoint 16">
       <r>  -42.0211    1.0000 </r>
       <r>  -42.0153    1.0000 </r>
       <r>  -39.6676    1.0000 </r>
       <r>  -39.6641    1.0000 </r>
       <r>  -39.5520    1.0000 </r>
       <r>  -39.5472    1.0000 </r>
       <r>  -18.4326    1.0000 </r>
       <r>  -18.4199    1.0000 </r>
       <r>  -17.7832    1.0000 </r>
       <r>  -17.7814    1.0000 </r>
       <r>  -10.5129    1.0000 </r>
       <r>  -10.4992    1.0000 </r>
       <r>   -9.3683    1.0000 </r>
       <r>   -9.3547    1.0000 </r>
       <r>   -9.3049    1.0000 </r>
       <r>   -9.2941    1.0000 </r>
       <r>   -8.3985    1.0000 </r>
       <r>   -8.3892    1.0000 </r>
       <r>   -7.1958    1.0000 </r>
       <r>   -7.1298    1.0000 </r>
       <r>   -6.7484    1.0000 </r>
       <r>   -6.7251    1.0000 </r>
       <r>   -6.3176    1.0000 </r>
       <r>   -6.2521    1.0000 </r>
       <r>   -3.3920    0.0000 </r>
       <r>   -3.3302    0.0000 </r>
       <r>   -2.9727    0.0000 </r>
       <r>   -2.9460    0.0000 </r>
       <r>   -2.4129    0.0000 </r>
       <r>   -2.3651    0.0000 </r>
       <r>   -1.2659    0.0000 </r>
       <r>   -1.2303    0.0000 </r>
       <r>    1.9519    0.0000 </r>
       <r>    1.9577    0.0000 </r>
       <r>    2.9997    0.0000 </r>
       <r>    3.0080    0.0000 </r>
       <r>    3.2389    0.0000 </r>
       <r>    3.2456    0.0000 </r>
       <r>    3.4934    0.0000 </r>
       <r>    3.5548    0.0000 </r>
      </set>
      <set comment="kpoint 17">
       <r>  -42.0483    1.0000 </r>
       <r>  -42.0403    1.0000 </r>
       <r>  -39.7192    1.0000 </r>
       <r>  -39.7104    1.0000 </r>
       <r>  -39.5621    1.0000 </r>
       <r>  -39.5595    1.0000 </r>
       <r>  -17.9689    1.0000 </r>
       <r>  -17.9494    1.0000 </r>
       <r>  -17.5974    1.0000 </r>
       <r>  -17.5949    1.0000 </r>
       <r>  -10.8534    1.0000 </r>
       <r>  -10.8529    1.0000 </r>
       <r>   -9.9599    1.0000 </r>
       <r>   -9.9525    1.0000 </r>
       <r>   -9.3487    1.0000 </r>
       <r>   -9.3479    1.0000 </r>
       <r>   -8.5680    1.0000 </r>
       <r>   -8.5589    1.0000 </r>
       <r>   -7.1221    1.0000 </r>
       <r>   -7.0915    1.0000 </r>
       <r>   -7.0355    1.0000 </r>
       <r>   -7.0001    1.0000 </r>
       <r>   -6.2107    1.0000 </r>
       <r>   -6.1212    1.0000 </r>
       <r>   -3.2376    0.0000 </r>
       <r>   -3.2017    0.0000 </r>
       <r>   -2.8487    0.0000 </r>
       <r>   -2.8387    0.0000 </r>
       <r>   -1.9212    0.0000 </r>
       <r>   -1.8885    0.0000 </r>
       <r>   -1.1132    0.0000 </r>
       <r>   -1.0911    0.0000 </r>
       <r>    1.9665    0.0000 </r>
       <r>    1.9723    0.0000 </r>
       <r>    2.6486    0.0000 </r>
       <r>    2.6585    0.0000 </r>
       <r>    3.0103    0.0000 </r>
       <r>    3.0231    0.0000 </r>
       <r>    3.7727    0.0000 </r>
       <r>    3.8013    0.0000 </r>
      </set>
      <set comment="kpoint 18">
       <r>  -42.0645    1.0000 </r>
       <r>  -42.0552    1.0000 </r>
       <r>  -39.7506    1.0000 </r>
       <r>  -39.7389    1.0000 </r>
       <r>  -39.5653    1.0000 </r>
       <r>  -39.5637    1.0000 </r>
       <r>  -17.6690    1.0000 </r>
       <r>  -17.6445    1.0000 </r>
       <r>  -17.4801    1.0000 </r>
       <r>  -17.4778    1.0000 </r>
       <r>  -11.1255    1.0000 </r>
       <r>  -11.1136    1.0000 </r>
       <r>  -10.3089    1.0000 </r>
       <r>  -10.3036    1.0000 </r>
       <r>   -9.4871    1.0000 </r>
       <r>   -9.4790    1.0000 </r>
       <r>   -8.6227    1.0000 </r>
       <r>   -8.6137    1.0000 </r>
       <r>   -7.2992    1.0000 </r>
       <r>   -7.2936    1.0000 </r>
       <r>   -6.9419    1.0000 </r>
       <r>   -6.8712    1.0000 </r>
       <r>   -5.9712    1.0000 </r>
       <r>   -5.8710    1.0000 </r>
       <r>   -3.1437    0.0000 </r>
       <r>   -3.1049    0.0000 </r>
       <r>   -2.6624    0.0000 </r>
       <r>   -2.5687    0.0000 </r>
       <r>   -1.5226    0.0000 </r>
       <r>   -1.4994    0.0000 </r>
       <r>   -1.1989    0.0000 </r>
       <r>   -1.1862    0.0000 </r>
       <r>    1.0598    0.0000 </r>
       <r>    1.0755    0.0000 </r>
       <r>    2.9892    0.0000 </r>
       <r>    3.0036    0.0000 </r>
       <r>    3.2424    0.0000 </r>
       <r>    3.2613    0.0000 </r>
       <r>    3.9124    0.0000 </r>
       <r>    4.7257    0.0000 </r>
      </set>
      <set comment="kpoint 19">
       <r>  -42.0645    1.0000 </r>
       <r>  -42.0552    1.0000 </r>
       <r>  -39.7506    1.0000 </r>
       <r>  -39.7389    1.0000 </r>
       <r>  -39.5653    1.0000 </r>
       <r>  -39.5637    1.0000 </r>
       <r>  -17.6690    1.0000 </r>
       <r>  -17.6445    1.0000 </r>
       <r>  -17.4801    1.0000 </r>
       <r>  -17.4778    1.0000 </r>
       <r>  -11.1255    1.0000 </r>
       <r>  -11.1136    1.0000 </r>
       <r>  -10.3089    1.0000 </r>
       <r>  -10.3036    1.0000 </r>
       <r>   -9.4871    1.0000 </r>
       <r>   -9.4790    1.0000 </r>
       <r>   -8.6227    1.0000 </r>
       <r>   -8.6137    1.0000 </r>
       <r>   -7.2992    1.0000 </r>
       <r>   -7.2936    1.0000 </r>
       <r>   -6.9419    1.0000 </r>
       <r>   -6.8712    1.0000 </r>
       <r>   -5.9712    1.0000 </r>
       <r>   -5.8710    1.0000 </r>
       <r>   -3.1437    0.0000 </r>
       <r>   -3.1049    0.0000 </r>
       <r>   -2.6624    0.0000 </r>
       <r>   -2.5686    0.0000 </r>
       <r>   -1.5226    0.0000 </r>
       <r>   -1.4994    0.0000 </r>
       <r>   -1.1989    0.0000 </r>
       <r>   -1.1862    0.0000 </r>
       <r>    1.0598    0.0000 </r>
       <r>    1.0755    0.0000 </r>
       <r>    2.9892    0.0000 </r>
       <r>    3.0037    0.0000 </r>
       <r>    3.2423    0.0000 </r>
       <r>    3.2613    0.0000 </r>
       <r>    3.8989    0.0000 </r>
       <r>    4.5796    0.0000 </r>
      </set>
      <set comment="kpoint 20">
       <r>  -42.0483    1.0000 </r>
       <r>  -42.0403    1.0000 </r>
       <r>  -39.7192    1.0000 </r>
       <r>  -39.7104    1.0000 </r>
       <r>  -39.5621    1.0000 </r>
       <r>  -39.5595    1.0000 </r>
       <r>  -17.9689    1.0000 </r>
       <r>  -17.9494    1.0000 </r>
       <r>  -17.5974    1.0000 </r>
       <r>  -17.5950    1.0000 </r>
       <r>  -10.8534    1.0000 </r>
       <r>  -10.8529    1.0000 </r>
       <r>   -9.9599    1.0000 </r>
       <r>   -9.9525    1.0000 </r>
       <r>   -9.3487    1.0000 </r>
       <r>   -9.3479    1.0000 </r>
       <r>   -8.5680    1.0000 </r>
       <r>   -8.5589    1.0000 </r>
       <r>   -7.1221    1.0000 </r>
       <r>   -7.0915    1.0000 </r>
       <r>   -7.0355    1.0000 </r>
       <r>   -7.0001    1.0000 </r>
       <r>   -6.2107    1.0000 </r>
       <r>   -6.1212    1.0000 </r>
       <r>   -3.2376    0.0000 </r>
       <r>   -3.2017    0.0000 </r>
       <r>   -2.8487    0.0000 </r>
       <r>   -2.8387    0.0000 </r>
       <r>   -1.9212    0.0000 </r>
       <r>   -1.8884    0.0000 </r>
       <r>   -1.1132    0.0000 </r>
       <r>   -1.0911    0.0000 </r>
       <r>    1.9665    0.0000 </r>
       <r>    1.9723    0.0000 </r>
       <r>    2.6486    0.0000 </r>
       <r>    2.6585    0.0000 </r>
       <r>    3.0103    0.0000 </r>
       <r>    3.0231    0.0000 </r>
       <r>    3.7708    0.0000 </r>
       <r>    3.8512    0.0000 </r>
      </set>
      <set comment="kpoint 21">
       <r>  -42.0211    1.0000 </r>
       <r>  -42.0153    1.0000 </r>
       <r>  -39.6676    1.0000 </r>
       <r>  -39.6641    1.0000 </r>
       <r>  -39.5520    1.0000 </r>
       <r>  -39.5472    1.0000 </r>
       <r>  -18.4326    1.0000 </r>
       <r>  -18.4199    1.0000 </r>
       <r>  -17.7832    1.0000 </r>
       <r>  -17.7814    1.0000 </r>
       <r>  -10.5129    1.0000 </r>
       <r>  -10.4992    1.0000 </r>
       <r>   -9.3683    1.0000 </r>
       <r>   -9.3547    1.0000 </r>
       <r>   -9.3050    1.0000 </r>
       <r>   -9.2941    1.0000 </r>
       <r>   -8.3985    1.0000 </r>
       <r>   -8.3892    1.0000 </r>
       <r>   -7.1958    1.0000 </r>
       <r>   -7.1298    1.0000 </r>
       <r>   -6.7484    1.0000 </r>
       <r>   -6.7251    1.0000 </r>
       <r>   -6.3176    1.0000 </r>
       <r>   -6.2521    1.0000 </r>
       <r>   -3.3920    0.0000 </r>
       <r>   -3.3302    0.0000 </r>
       <r>   -2.9727    0.0000 </r>
       <r>   -2.9460    0.0000 </r>
       <r>   -2.4129    0.0000 </r>
       <r>   -2.3651    0.0000 </r>
       <r>   -1.2659    0.0000 </r>
       <r>   -1.2303    0.0000 </r>
       <r>    1.9518    0.0000 </r>
       <r>    1.9577    0.0000 </r>
       <r>    2.9997    0.0000 </r>
       <r>    3.0080    0.0000 </r>
       <r>    3.2396    0.0000 </r>
       <r>    3.2465    0.0000 </r>
       <r>    3.5022    0.0000 </r>
       <r>    3.5702    0.0000 </r>
      </set>
      <set comment="kpoint 22">
       <r>  -41.9908    1.0000 </r>
       <r>  -41.9875    1.0000 </r>
       <r>  -39.6225    1.0000 </r>
       <r>  -39.6216    1.0000 </r>
       <r>  -39.5242    1.0000 </r>
       <r>  -39.5185    1.0000 </r>
       <r>  -18.9061    1.0000 </r>
       <r>  -18.8994    1.0000 </r>
       <r>  -17.9768    1.0000 </r>
       <r>  -17.9756    1.0000 </r>
       <r>  -10.4883    1.0000 </r>
       <r>  -10.4781    1.0000 </r>
       <r>   -9.1249    1.0000 </r>
       <r>   -9.1210    1.0000 </r>
       <r>   -8.6985    1.0000 </r>
       <r>   -8.6887    1.0000 </r>
       <r>   -8.0244    1.0000 </r>
       <r>   -8.0198    1.0000 </r>
       <r>   -7.4276    1.0000 </r>
       <r>   -7.3884    1.0000 </r>
       <r>   -6.4463    1.0000 </r>
       <r>   -6.4174    1.0000 </r>
       <r>   -6.0061    1.0000 </r>
       <r>   -5.9807    1.0000 </r>
       <r>   -3.3086    0.0000 </r>
       <r>   -3.2812    0.0000 </r>
       <r>   -2.9213    0.0000 </r>
       <r>   -2.9110    0.0000 </r>
       <r>   -2.8186    0.0000 </r>
       <r>   -2.7535    0.0000 </r>
       <r>   -1.6331    0.0000 </r>
       <r>   -1.5874    0.0000 </r>
       <r>    1.3133    0.0000 </r>
       <r>    1.3162    0.0000 </r>
       <r>    2.6660    0.0000 </r>
       <r>    2.6877    0.0000 </r>
       <r>    2.8647    0.0000 </r>
       <r>    2.8711    0.0000 </r>
       <r>    3.5977    0.0000 </r>
       <r>    4.2532    0.0000 </r>
      </set>
      <set comment="kpoint 23">
       <r>  -41.9656    1.0000 </r>
       <r>  -41.9644    1.0000 </r>
       <r>  -39.6008    1.0000 </r>
       <r>  -39.6000    1.0000 </r>
       <r>  -39.4793    1.0000 </r>
       <r>  -39.4767    1.0000 </r>
       <r>  -19.2781    1.0000 </r>
       <r>  -19.2758    1.0000 </r>
       <r>  -18.1300    1.0000 </r>
       <r>  -18.1293    1.0000 </r>
       <r>  -10.7752    1.0000 </r>
       <r>  -10.7724    1.0000 </r>
       <r>   -8.6524    1.0000 </r>
       <r>   -8.6407    1.0000 </r>
       <r>   -8.1432    1.0000 </r>
       <r>   -8.1427    1.0000 </r>
       <r>   -7.7402    1.0000 </r>
       <r>   -7.7148    1.0000 </r>
       <r>   -7.4651    1.0000 </r>
       <r>   -7.4589    1.0000 </r>
       <r>   -6.4067    1.0000 </r>
       <r>   -6.3816    1.0000 </r>
       <r>   -5.6537    1.0000 </r>
       <r>   -5.6483    1.0000 </r>
       <r>   -2.9956    0.0000 </r>
       <r>   -2.9834    0.0000 </r>
       <r>   -2.9004    0.0000 </r>
       <r>   -2.8478    0.0000 </r>
       <r>   -2.6940    0.0000 </r>
       <r>   -2.6675    0.0000 </r>
       <r>   -2.0996    0.0000 </r>
       <r>   -2.0514    0.0000 </r>
       <r>    0.8098    0.0000 </r>
       <r>    0.8126    0.0000 </r>
       <r>    2.0940    0.0000 </r>
       <r>    2.0965    0.0000 </r>
       <r>    2.2947    0.0000 </r>
[...]
       <r>    -6.9069     0.0000     0.0000 </r>
       <r>    -6.7304     0.0000     0.0000 </r>
       <r>    -6.5540     0.0000     0.0000 </r>
       <r>    -6.3776     0.0000     0.0000 </r>
       <r>    -6.2011     0.0000     0.0000 </r>
       <r>    -6.0247     0.0000     0.0000 </r>
       <r>    -5.8482     0.0000     0.0000 </r>
       <r>    -5.6718     0.0000     0.0000 </r>
       <r>    -5.4954     0.0000     0.0000 </r>
       <r>    -5.3189     0.0000     0.0000 </r>
       <r>    -5.1425     0.0000     0.0000 </r>
       <r>    -4.9660     0.0000     0.0000 </r>
       <r>    -4.7896     0.0000     0.0000 </r>
       <r>    -4.6131     0.0000     0.0000 </r>
       <r>    -4.4367     0.0000     0.0000 </r>
       <r>    -4.2603     0.0000     0.0000 </r>
       <r>    -4.0838     0.0000     0.0000 </r>
       <r>    -3.9074     0.0000     0.0000 </r>
       <r>    -3.7309     0.0000     0.0000 </r>
       <r>    -3.5545     0.0000     0.0000 </r>
       <r>    -3.3781     0.0000     0.0000 </r>
       <r>    -3.2016     0.0000     0.0000 </r>
       <r>    -3.0252     0.0000     0.0000 </r>
       <r>    -2.8487     0.0000     0.0000 </r>
       <r>    -2.6723     0.0000     0.0000 </r>
       <r>    -2.4959     0.0000     0.0000 </r>
       <r>    -2.3194     0.0000     0.0000 </r>
       <r>    -2.1430     0.0000     0.0000 </r>
       <r>    -1.9665     0.0000     0.0000 </r>
       <r>    -1.7901     0.0000     0.0000 </r>
       <r>    -1.6136     0.0000     0.0000 </r>
       <r>    -1.4372     0.0000     0.0000 </r>
       <r>    -1.2608     0.0000     0.0000 </r>
       <r>    -1.0843     0.0000     0.0000 </r>
       <r>    -0.9079     0.0000     0.0000 </r>
       <r>    -0.7314     0.0000     0.0000 </r>
       <r>    -0.5550     0.0000     0.0000 </r>
       <r>    -0.3786     0.0000     0.0000 </r>
       <r>    -0.2021     0.0000     0.0000 </r>
       <r>    -0.0257     0.0000     0.0000 </r>
       <r>     0.1508     0.0000     0.0000 </r>
       <r>     0.3272     0.0000     0.0000 </r>
       <r>     0.5036     0.0000     0.0000 </r>
       <r>     0.6801     0.0000     0.0000 </r>
       <r>     0.8565     0.0000     0.0000 </r>
       <r>     1.0330     0.0000     0.0000 </r>
       <r>     1.2094     0.0000     0.0000 </r>
       <r>     1.3858     0.0000     0.0000 </r>
       <r>     1.5623     0.0000     0.0000 </r>
       <r>     1.7387     0.0000     0.0000 </r>
       <r>     1.9152     0.0000     0.0000 </r>
       <r>     2.0916     0.0000     0.0000 </r>
       <r>     2.2681     0.0000     0.0000 </r>
       <r>     2.4445     0.0000     0.0000 </r>
       <r>     2.6209     0.0000     0.0000 </r>
       <r>     2.7974     0.0000     0.0000 </r>
       <r>     2.9738     0.0000     0.0000 </r>
       <r>     3.1503     0.0000     0.0000 </r>
       <r>     3.3267     0.0000     0.0000 </r>
       <r>     3.5031     0.0000     0.0000 </r>
       <r>     3.6796     0.0000     0.0000 </r>
       <r>     3.8560     0.0000     0.0000 </r>
       <r>     4.0325     0.0000     0.0000 </r>
       <r>     4.2089     0.0000     0.0000 </r>
       <r>     4.3853     0.0000     0.0000 </r>
       <r>     4.5618     0.0000     0.0000 </r>
       <r>     4.7382     0.0000     0.0000 </r>
       <r>     4.9147     0.0000     0.0000 </r>
       <r>     5.0911     0.0000     0.0000 </r>
       <r>     5.2675     0.0000     0.0000 </r>
       <r>     5.4440     0.0000     0.0000 </r>
       <r>     5.6204     0.0000     0.0000 </r>
       <r>     5.7969     0.0000     0.0000 </r>
       <r>     5.9733     0.0000     0.0000 </r>
       <r>     6.1498     0.0000     0.0000 </r>
       <r>     6.3262     0.0000     0.0000 </r>
       <r>     6.5026     0.0000     0.0000 </r>
       <r>     6.6791     0.0000     0.0000 </r>
       <r>     6.8555     0.0000     0.0000 </r>
       <r>     7.0320     0.0000     0.0000 </r>
       <r>     7.2084     0.0000     0.0000 </r>
       <r>     7.3848     0.0000     0.0000 </r>
       <r>     7.5613     0.0000     0.0000 </r>
       <r>     7.7377     0.0000     0.0000 </r>
       <r>     7.9142     0.0000     0.0000 </r>
       <r>     8.0906     0.0000     0.0000 </r>
       <r>     8.2670     0.0000     0.0000 </r>
       <r>     8.4435     0.0000     0.0000 </r>
      </set>
      <set comment="spin 4">
       <r>   -44.4888     0.0000     0.0000 </r>
       <r>   -44.3124     0.0000     0.0000 </r>
       <r>   -44.1359     0.0000     0.0000 </r>
       <r>   -43.9595     0.0000     0.0000 </r>
       <r>   -43.7830     0.0000     0.0000 </r>
       <r>   -43.6066     0.0000     0.0000 </r>
       <r>   -43.4302     0.0000     0.0000 </r>
       <r>   -43.2537     0.0000     0.0000 </r>
       <r>   -43.0773     0.0000     0.0000 </r>
       <r>   -42.9008     0.0000     0.0000 </r>
       <r>   -42.7244     0.0000     0.0000 </r>
       <r>   -42.5480     0.0000     0.0000 </r>
       <r>   -42.3715     0.0000     0.0000 </r>
       <r>   -42.1951     0.0000     0.0000 </r>
       <r>   -42.0186     0.0000     0.0000 </r>
       <r>   -41.8422     0.0000     0.0000 </r>
       <r>   -41.6658     0.0000     0.0000 </r>
       <r>   -41.4893     0.0000     0.0000 </r>
       <r>   -41.3129     0.0000     0.0000 </r>
       <r>   -41.1364     0.0000     0.0000 </r>
       <r>   -40.9600     0.0000     0.0000 </r>
       <r>   -40.7836     0.0000     0.0000 </r>
       <r>   -40.6071     0.0000     0.0000 </r>
       <r>   -40.4307     0.0000     0.0000 </r>
       <r>   -40.2542     0.0000     0.0000 </r>
       <r>   -40.0778     0.0000     0.0000 </r>
       <r>   -39.9013     0.0000     0.0000 </r>
       <r>   -39.7249     0.0000     0.0000 </r>
       <r>   -39.5485     0.0000     0.0000 </r>
       <r>   -39.3720     0.0000     0.0000 </r>
       <r>   -39.1956     0.0000     0.0000 </r>
       <r>   -39.0191     0.0000     0.0000 </r>
       <r>   -38.8427     0.0000     0.0000 </r>
       <r>   -38.6663     0.0000     0.0000 </r>
       <r>   -38.4898     0.0000     0.0000 </r>
       <r>   -38.3134     0.0000     0.0000 </r>
       <r>   -38.1369     0.0000     0.0000 </r>
       <r>   -37.9605     0.0000     0.0000 </r>
       <r>   -37.7841     0.0000     0.0000 </r>
       <r>   -37.6076     0.0000     0.0000 </r>
       <r>   -37.4312     0.0000     0.0000 </r>
       <r>   -37.2547     0.0000     0.0000 </r>
       <r>   -37.0783     0.0000     0.0000 </r>
       <r>   -36.9018     0.0000     0.0000 </r>
       <r>   -36.7254     0.0000     0.0000 </r>
       <r>   -36.5490     0.0000     0.0000 </r>
       <r>   -36.3725     0.0000     0.0000 </r>
       <r>   -36.1961     0.0000     0.0000 </r>
       <r>   -36.0196     0.0000     0.0000 </r>
       <r>   -35.8432     0.0000     0.0000 </r>
       <r>   -35.6668     0.0000     0.0000 </r>
       <r>   -35.4903     0.0000     0.0000 </r>
       <r>   -35.3139     0.0000     0.0000 </r>
       <r>   -35.1374     0.0000     0.0000 </r>
       <r>   -34.9610     0.0000     0.0000 </r>
       <r>   -34.7846     0.0000     0.0000 </r>
       <r>   -34.6081     0.0000     0.0000 </r>
       <r>   -34.4317     0.0000     0.0000 </r>
       <r>   -34.2552     0.0000     0.0000 </r>
       <r>   -34.0788     0.0000     0.0000 </r>
       <r>   -33.9024     0.0000     0.0000 </r>
       <r>   -33.7259     0.0000     0.0000 </r>
       <r>   -33.5495     0.0000     0.0000 </r>
       <r>   -33.3730     0.0000     0.0000 </r>
       <r>   -33.1966     0.0000     0.0000 </r>
       <r>   -33.0201     0.0000     0.0000 </r>
       <r>   -32.8437     0.0000     0.0000 </r>
       <r>   -32.6673     0.0000     0.0000 </r>
       <r>   -32.4908     0.0000     0.0000 </r>
       <r>   -32.3144     0.0000     0.0000 </r>
       <r>   -32.1379     0.0000     0.0000 </r>
       <r>   -31.9615     0.0000     0.0000 </r>
       <r>   -31.7851     0.0000     0.0000 </r>
       <r>   -31.6086     0.0000     0.0000 </r>
       <r>   -31.4322     0.0000     0.0000 </r>
       <r>   -31.2557     0.0000     0.0000 </r>
       <r>   -31.0793     0.0000     0.0000 </r>
       <r>   -30.9029     0.0000     0.0000 </r>
       <r>   -30.7264     0.0000     0.0000 </r>
       <r>   -30.5500     0.0000     0.0000 </r>
       <r>   -30.3735     0.0000     0.0000 </r>
       <r>   -30.1971     0.0000     0.0000 </r>
       <r>   -30.0206     0.0000     0.0000 </r>
       <r>   -29.8442     0.0000     0.0000 </r>
       <r>   -29.6678     0.0000     0.0000 </r>
       <r>   -29.4913     0.0000     0.0000 </r>
       <r>   -29.3149     0.0000     0.0000 </r>
       <r>   -29.1384     0.0000     0.0000 </r>
       <r>   -28.9620     0.0000     0.0000 </r>
       <r>   -28.7856     0.0000     0.0000 </r>
       <r>   -28.6091     0.0000     0.0000 </r>
       <r>   -28.4327     0.0000     0.0000 </r>
       <r>   -28.2562     0.0000     0.0000 </r>
       <r>   -28.0798     0.0000     0.0000 </r>
       <r>   -27.9034     0.0000     0.0000 </r>
       <r>   -27.7269     0.0000     0.0000 </r>
       <r>   -27.5505     0.0000     0.0000 </r>
       <r>   -27.3740     0.0000     0.0000 </r>
       <r>   -27.1976     0.0000     0.0000 </r>
       <r>   -27.0212     0.0000     0.0000 </r>
       <r>   -26.8447     0.0000     0.0000 </r>
       <r>   -26.6683     0.0000     0.0000 </r>
       <r>   -26.4918     0.0000     0.0000 </r>
       <r>   -26.3154     0.0000     0.0000 </r>
       <r>   -26.1389     0.0000     0.0000 </r>
       <r>   -25.9625     0.0000     0.0000 </r>
       <r>   -25.7861     0.0000     0.0000 </r>
       <r>   -25.6096     0.0000     0.0000 </r>
       <r>   -25.4332     0.0000     0.0000 </r>
       <r>   -25.2567     0.0000     0.0000 </r>
       <r>   -25.0803     0.0000     0.0000 </r>
       <r>   -24.9039     0.0000     0.0000 </r>
       <r>   -24.7274     0.0000     0.0000 </r>
       <r>   -24.5510     0.0000     0.0000 </r>
       <r>   -24.3745     0.0000     0.0000 </r>
       <r>   -24.1981     0.0000     0.0000 </r>
       <r>   -24.0217     0.0000     0.0000 </r>
       <r>   -23.8452     0.0000     0.0000 </r>
       <r>   -23.6688     0.0000     0.0000 </r>
       <r>   -23.4923     0.0000     0.0000 </r>
       <r>   -23.3159     0.0000     0.0000 </r>
       <r>   -23.1395     0.0000     0.0000 </r>
       <r>   -22.9630     0.0000     0.0000 </r>
       <r>   -22.7866     0.0000     0.0000 </r>
       <r>   -22.6101     0.0000     0.0000 </r>
       <r>   -22.4337     0.0000     0.0000 </r>
       <r>   -22.2572     0.0000     0.0000 </r>
       <r>   -22.0808     0.0000     0.0000 </r>
       <r>   -21.9044     0.0000     0.0000 </r>
       <r>   -21.7279     0.0000     0.0000 </r>
       <r>   -21.5515     0.0000     0.0000 </r>
       <r>   -21.3750     0.0000     0.0000 </r>
       <r>   -21.1986     0.0000     0.0000 </r>
       <r>   -21.0222     0.0000     0.0000 </r>
       <r>   -20.8457     0.0000     0.0000 </r>
       <r>   -20.6693     0.0000     0.0000 </r>
       <r>   -20.4928     0.0000     0.0000 </r>
       <r>   -20.3164     0.0000     0.0000 </r>
       <r>   -20.1400     0.0000     0.0000 </r>
       <r>   -19.9635     0.0000     0.0000 </r>
       <r>   -19.7871     0.0000     0.0000 </r>
       <r>   -19.6106     0.0000     0.0000 </r>
       <r>   -19.4342     0.0000     0.0000 </r>
       <r>   -19.2577     0.0000     0.0000 </r>
       <r>   -19.0813     0.0000     0.0000 </r>
       <r>   -18.9049     0.0000     0.0000 </r>
       <r>   -18.7284     0.0000     0.0000 </r>
       <r>   -18.5520     0.0000     0.0000 </r>
       <r>   -18.3755     0.0000     0.0000 </r>
       <r>   -18.1991     0.0000     0.0000 </r>
       <r>   -18.0227     0.0000     0.0000 </r>
       <r>   -17.8462     0.0000     0.0000 </r>
       <r>   -17.6698     0.0000     0.0000 </r>
       <r>   -17.4933     0.0000     0.0000 </r>
       <r>   -17.3169     0.0000     0.0000 </r>
       <r>   -17.1405     0.0000     0.0000 </r>
       <r>   -16.9640     0.0000     0.0000 </r>
       <r>   -16.7876     0.0000     0.0000 </r>
       <r>   -16.6111     0.0000     0.0000 </r>
       <r>   -16.4347     0.0000     0.0000 </r>
       <r>   -16.2583     0.0000     0.0000 </r>
       <r>   -16.0818     0.0000     0.0000 </r>
       <r>   -15.9054     0.0000     0.0000 </r>
       <r>   -15.7289     0.0000     0.0000 </r>
       <r>   -15.5525     0.0000     0.0000 </r>
       <r>   -15.3760     0.0000     0.0000 </r>
       <r>   -15.1996     0.0000     0.0000 </r>
       <r>   -15.0232     0.0000     0.0000 </r>
       <r>   -14.8467     0.0000     0.0000 </r>
       <r>   -14.6703     0.0000     0.0000 </r>
       <r>   -14.4938     0.0000     0.0000 </r>
       <r>   -14.3174     0.0000     0.0000 </r>
       <r>   -14.1410     0.0000     0.0000 </r>
       <r>   -13.9645     0.0000     0.0000 </r>
       <r>   -13.7881     0.0000     0.0000 </r>
       <r>   -13.6116     0.0000     0.0000 </r>
       <r>   -13.4352     0.0000     0.0000 </r>
       <r>   -13.2588     0.0000     0.0000 </r>
       <r>   -13.0823     0.0000     0.0000 </r>
       <r>   -12.9059     0.0000     0.0000 </r>
       <r>   -12.7294     0.0000     0.0000 </r>
       <r>   -12.5530     0.0000     0.0000 </r>
       <r>   -12.3765     0.0000     0.0000 </r>
       <r>   -12.2001     0.0000     0.0000 </r>
       <r>   -12.0237     0.0000     0.0000 </r>
       <r>   -11.8472     0.0000     0.0000 </r>
       <r>   -11.6708     0.0000     0.0000 </r>
       <r>   -11.4943     0.0000     0.0000 </r>
       <r>   -11.3179     0.0000     0.0000 </r>
       <r>   -11.1415     0.0000     0.0000 </r>
       <r>   -10.9650     0.0000     0.0000 </r>
       <r>   -10.7886     0.0000     0.0000 </r>
       <r>   -10.6121     0.0000     0.0000 </r>
       <r>   -10.4357     0.0000     0.0000 </r>
       <r>   -10.2593     0.0000     0.0000 </r>
       <r>   -10.0828     0.0000     0.0000 </r>
       <r>    -9.9064     0.0000     0.0000 </r>
       <r>    -9.7299     0.0000     0.0000 </r>
       <r>    -9.5535     0.0000     0.0000 </r>
       <r>    -9.3771     0.0000     0.0000 </r>
       <r>    -9.2006     0.0000     0.0000 </r>
       <r>    -9.0242     0.0000     0.0000 </r>
       <r>    -8.8477     0.0000     0.0000 </r>
       <r>    -8.6713     0.0000     0.0000 </r>
       <r>    -8.4948     0.0000     0.0000 </r>
       <r>    -8.3184     0.0000     0.0000 </r>
       <r>    -8.1420     0.0000     0.0000 </r>
       <r>    -7.9655     0.0000     0.0000 </r>
       <r>    -7.7891     0.0000     0.0000 </r>
       <r>    -7.6126     0.0000     0.0000 </r>
       <r>    -7.4362     0.0000     0.0000 </r>
       <r>    -7.2598     0.0000     0.0000 </r>
       <r>    -7.0833     0.0000     0.0000 </r>
       <r>    -6.9069     0.0000     0.0000 </r>
       <r>    -6.7304     0.0000     0.0000 </r>
       <r>    -6.5540     0.0000     0.0000 </r>
       <r>    -6.3776     0.0000     0.0000 </r>
       <r>    -6.2011     0.0000     0.0000 </r>
       <r>    -6.0247     0.0000     0.0000 </r>
       <r>    -5.8482     0.0000     0.0000 </r>
       <r>    -5.6718     0.0000     0.0000 </r>
       <r>    -5.4954     0.0000     0.0000 </r>
       <r>    -5.3189     0.0000     0.0000 </r>
       <r>    -5.1425     0.0000     0.0000 </r>
       <r>    -4.9660     0.0000     0.0000 </r>
       <r>    -4.7896     0.0000     0.0000 </r>
       <r>    -4.6131     0.0000     0.0000 </r>
       <r>    -4.4367     0.0000     0.0000 </r>
       <r>    -4.2603     0.0000     0.0000 </r>
       <r>    -4.0838     0.0000     0.0000 </r>
       <r>    -3.9074     0.0000     0.0000 </r>
       <r>    -3.7309     0.0000     0.0000 </r>
       <r>    -3.5545     0.0000     0.0000 </r>
       <r>    -3.3781     0.0000     0.0000 </r>
       <r>    -3.2016     0.0000     0.0000 </r>
       <r>    -3.0252     0.0000     0.0000 </r>
       <r>    -2.8487     0.0000     0.0000 </r>
       <r>    -2.6723     0.0000     0.0000 </r>
       <r>    -2.4959     0.0000     0.0000 </r>
       <r>    -2.3194     0.0000     0.0000 </r>
       <r>    -2.1430     0.0000     0.0000 </r>
       <r>    -1.9665     0.0000     0.0000 </r>
       <r>    -1.7901     0.0000     0.0000 </r>
       <r>    -1.6136     0.0000     0.0000 </r>
       <r>    -1.4372     0.0000     0.0000 </r>
       <r>    -1.2608     0.0000     0.0000 </r>
       <r>    -1.0843     0.0000     0.0000 </r>
       <r>    -0.9079     0.0000     0.0000 </r>
       <r>    -0.7314     0.0000     0.0000 </r>
       <r>    -0.5550     0.0000     0.0000 </r>
       <r>    -0.3786     0.0000     0.0000 </r>
       <r>    -0.2021     0.0000     0.0000 </r>
       <r>    -0.0257     0.0000     0.0000 </r>
       <r>     0.1508     0.0000     0.0000 </r>
       <r>     0.3272     0.0000     0.0000 </r>
       <r>     0.5036     0.0000     0.0000 </r>
       <r>     0.6801     0.0000     0.0000 </r>
       <r>     0.8565     0.0000     0.0000 </r>
       <r>     1.0330     0.0000     0.0000 </r>
       <r>     1.2094     0.0000     0.0000 </r>
       <r>     1.3858     0.0000     0.0000 </r>
       <r>     1.5623     0.0000     0.0000 </r>
       <r>     1.7387     0.0000     0.0000 </r>
       <r>     1.9152     0.0000     0.0000 </r>
       <r>     2.0916     0.0000     0.0000 </r>
       <r>     2.2681     0.0000     0.0000 </r>
       <r>     2.4445     0.0000     0.0000 </r>
       <r>     2.6209     0.0000     0.0000 </r>
       <r>     2.7974     0.0000     0.0000 </r>
       <r>     2.9738     0.0000     0.0000 </r>
       <r>     3.1503     0.0000     0.0000 </r>
       <r>     3.3267     0.0000     0.0000 </r>
       <r>     3.5031     0.0000     0.0000 </r>
       <r>     3.6796     0.0000     0.0000 </r>
       <r>     3.8560     0.0000     0.0000 </r>
       <r>     4.0325     0.0000     0.0000 </r>
       <r>     4.2089     0.0000     0.0000 </r>
       <r>     4.3853     0.0000     0.0000 </r>
       <r>     4.5618     0.0000     0.0000 </r>
       <r>     4.7382     0.0000     0.0000 </r>
       <r>     4.9147     0.0000     0.0000 </r>
       <r>     5.0911     0.0000     0.0000 </r>
       <r>     5.2675     0.0000     0.0000 </r>
       <r>     5.4440     0.0000     0.0000 </r>
       <r>     5.6204     0.0000     0.0000 </r>
       <r>     5.7969     0.0000     0.0000 </r>
       <r>     5.9733     0.0000     0.0000 </r>
       <r>     6.1498     0.0000     0.0000 </r>
       <r>     6.3262     0.0000     0.0000 </r>
       <r>     6.5026     0.0000     0.0000 </r>
       <r>     6.6791     0.0000     0.0000 </r>
       <r>     6.8555     0.0000     0.0000 </r>
       <r>     7.0320     0.0000     0.0000 </r>
       <r>     7.2084     0.0000     0.0000 </r>
       <r>     7.3848     0.0000     0.0000 </r>
       <r>     7.5613     0.0000     0.0000 </r>
       <r>     7.7377     0.0000     0.0000 </r>
       <r>     7.9142     0.0000     0.0000 </r>
       <r>     8.0906     0.0000     0.0000 </r>
       <r>     8.2670     0.0000     0.0000 </r>
       <r>     8.4435     0.0000     0.0000 </r>
      </set>
     </set>
    </array>
   </total>
  </dos>
 </calculation>
 <structure name="finalpos" >
  <crystal>
   <varray name="basis" >
    <v>       1.58218970      -2.74043224       0.00000000 </v>
    <v>       1.58218970       2.74043224       0.00000000 </v>
    <v>       0.00000000       0.00000000      34.96267827 </v>
   </varray>
   <i name="volume">    303.18821061 </i>
   <varray name="rec_basis" >
    <v>       0.31601773      -0.18245297       0.00000000 </v>
    <v>       0.31601773       0.18245297       0.00000000 </v>
    <v>       0.00000000       0.00000000       0.02860193 </v>
   </varray>
  </crystal>
  <varray name="positions" >
   <v>       0.66666700       0.33333300       0.10664700 </v>
   <v>       0.33333300       0.66666700       0.06198962 </v>
   <v>       0.33333300       0.66666700       0.15130538 </v>
  </varray>
 </structure>
</modeling>
