 vasp.5.3.3 18Dez12 (build Dec 11 2014 13:53:11) complex                        
  
 executed on             LinuxIFC date 2016.06.15  18:19:50
 running on   16 total cores
 distrk:  each k-point on   16 cores,    1 groups
 distr:  one band on NCORES_PER_BAND=   4 cores,    4 groups


--------------------------------------------------------------------------------------------------------


 INCAR:
 POTCAR:    PAW_PBE Mo_pv 04Feb2005               
 POTCAR:    PAW_PBE S 06Sep2000                   

 ----------------------------------------------------------------------------- 
|                                                                             |
|  ADVICE TO THIS USER RUNNING 'VASP/VAMP'   (HEAR YOUR MASTER'S VOICE ...):  |
|                                                                             |
|      You have switched on vdW-DFT.                                          |
|      This routine was written and supplied by Jiri Klimes.                  |
|      We recommed that you carefully read and cite the following             |
|      publication                                                            |
|      J. Klimes, D.R. Bowler, A. Michelides                                  |
|        J. Phys.: Cond Matt. 22 022201 (2010)                                |
|      J. Klimes, D.R. Bowler, A. Michelides                                  |
|        Phys. Rev. B. 83, 195131 (2011)                                      |
|      and references therein.                                                |
|                                                                             |
 ----------------------------------------------------------------------------- 

 POTCAR:    PAW_PBE Mo_pv 04Feb2005               
   VRHFIN =Mo: 4p5s4d                                                           
   LEXCH  = PE                                                                  
   EATOM  =  1284.3008 eV,   94.3934 Ry                                         
                                                                                
   TITEL  = PAW_PBE Mo_pv 04Feb2005                                             
   LULTRA =        F    use ultrasoft PP ?                                      
   IUNSCR =        1    unscreen: 0-lin 1-nonlin 2-no                           
   RPACOR =    2.200    partial core radius                                     
   POMASS =   95.940; ZVAL   =   12.000    mass and valenz                      
   RCORE  =    2.700    outmost cutoff radius                                   
   RWIGS  =    2.750; RWIGS  =    1.455    wigner-seitz radius (au A)           
   ENMAX  =  224.584; ENMIN  =  168.438 eV                                      
   ICORE  =        3    local potential                                         
   LCOR   =        T    correct aug charges                                     
   LPAW   =        T    paw PP                                                  
   EAUG   =  392.427                                                            
   DEXC   =    0.000                                                            
   RMAX   =    2.754    core radius for proj-oper                               
   RAUG   =    1.300    factor for augmentation sphere                          
   RDEP   =    2.815    radius for radial grids                                 
   RDEPT  =    2.166    core radius for aug-charge                              
                                                                                
   Atomic configuration                                                         
   11 entries                                                                   
     n  l   j            E        occ.                                          
     1  0  0.50    -19819.0341   2.0000                                         
     2  0  0.50     -2799.0127   2.0000                                         
     2  1  1.50     -2502.0276   6.0000                                         
     3  0  0.50      -476.4449   2.0000                                         
     3  1  1.50      -379.1496   6.0000                                         
     3  2  2.50      -220.9367  10.0000                                         
     4  0  0.50       -64.3378   2.0000                                         
     4  1  1.50       -38.4773   6.0000                                         
     4  2  2.50        -3.7535   5.0000                                         
     5  0  0.50        -4.0862   1.0000                                         
     4  3  2.50        -1.3606   0.0000                                         
   Description                                                                  
     l       E           TYP  RCUT    TYP  RCUT                                 
     1    -38.4772993     23  2.500                                             
     1     -2.7211652     23  2.500                                             
     2     -3.7534941     23  2.500                                             
     2     -5.1140767     23  2.500                                             
     0     -4.0861640     23  2.700                                             
     0     27.2116520     23  2.700                                             
     3     -4.0817478     23  2.600                                             
  local pseudopotential read in
  partial core-charges read in
  partial kinetic energy density read in
  atomic valenz-charges read in
  non local Contribution for L=           1  read in
    real space projection operators read in
  non local Contribution for L=           1  read in
    real space projection operators read in
  non local Contribution for L=           2  read in
    real space projection operators read in
  non local Contribution for L=           2  read in
    real space projection operators read in
  non local Contribution for L=           0  read in
    real space projection operators read in
  non local Contribution for L=           0  read in
    real space projection operators read in
    PAW grid and wavefunctions read in
 
   number of l-projection  operators is LMAX  =           6
   number of lm-projection operators is LMMAX =          18
 
 POTCAR:    PAW_PBE S 06Sep2000                   
   VRHFIN =S : s2p4                                                             
   LEXCH  = PE                                                                  
   EATOM  =   276.8230 eV,   20.3459 Ry                                         
                                                                                
   TITEL  = PAW_PBE S 06Sep2000                                                 
   LULTRA =        F    use ultrasoft PP ?                                      
   IUNSCR =        1    unscreen: 0-lin 1-nonlin 2-no                           
   RPACOR =    1.500    partial core radius                                     
   POMASS =   32.066; ZVAL   =    6.000    mass and valenz                      
   RCORE  =    1.900    outmost cutoff radius                                   
   RWIGS  =    2.200; RWIGS  =    1.164    wigner-seitz radius (au A)           
   ENMAX  =  258.689; ENMIN  =  194.016 eV                                      
   ICORE  =        2    local potential                                         
   LCOR   =        T    correct aug charges                                     
   LPAW   =        T    paw PP                                                  
   EAUG   =  335.092                                                            
   DEXC   =    0.000                                                            
   RMAX   =    1.942    core radius for proj-oper                               
   RAUG   =    1.300    factor for augmentation sphere                          
   RDEP   =    1.954    radius for radial grids                                 
   RDEPT  =    1.744    core radius for aug-charge                              
                                                                                
   Atomic configuration                                                         
    6 entries                                                                   
     n  l   j            E        occ.                                          
     1  0  0.50     -2405.8406   2.0000                                         
     2  0  0.50      -211.7007   2.0000                                         
     2  1  1.50      -156.4958   6.0000                                         
     3  0  0.50       -17.2562   2.0000                                         
     3  1  0.50        -7.0085   4.0000                                         
     3  2  1.50        -6.8029   0.0000                                         
   Description                                                                  
     l       E           TYP  RCUT    TYP  RCUT                                 
     0    -17.2561641     23  1.900                                             
     0    -15.8743224     23  1.900                                             
     1     -7.0085400     23  1.900                                             
     1     -2.7779785     23  1.900                                             
     2     -6.8029130     23  1.900                                             
  local pseudopotential read in
  partial core-charges read in
  partial kinetic energy density read in
  atomic valenz-charges read in
  non local Contribution for L=           0  read in
    real space projection operators read in
  non local Contribution for L=           0  read in
    real space projection operators read in
  non local Contribution for L=           1  read in
    real space projection operators read in
  non local Contribution for L=           1  read in
    real space projection operators read in
    PAW grid and wavefunctions read in
 
   number of l-projection  operators is LMAX  =           4
   number of lm-projection operators is LMMAX =           8
 

 ----------------------------------------------------------------------------- 
|                                                                             |
|  ADVICE TO THIS USER RUNNING 'VASP/VAMP'   (HEAR YOUR MASTER'S VOICE ...):  |
|                                                                             |
|      You enforced a specific xc-type in the INCAR file,                     |
|      a different type was found on the POTCAR file                          |
|          I HOPE YOU KNOW, WHAT YOU ARE  DOING                               |
|                                                                             |
 ----------------------------------------------------------------------------- 

  PAW_PBE Mo_pv 04Feb2005               :
 energy of atom  1       EATOM=-1284.3008
 kinetic energy error for atom=    0.0010 (will be added to EATOM!!)
  PAW_PBE S 06Sep2000                   :
 energy of atom  2       EATOM= -276.8230
 kinetic energy error for atom=    0.0009 (will be added to EATOM!!)
 
 
 POSCAR: Surf-mp-2815                            
  positions in direct lattice
  No initial velocities read in
 exchange correlation table for  LEXCH =       42
   RHO(1)=    0.500       N(1)  =     2000
   RHO(2)=  100.500       N(2)  =     4000
 


--------------------------------------------------------------------------------------------------------


 ion  position               nearest neighbor table
   1  0.667  0.333  0.107-   2 2.42   2 2.42   2 2.42   3 2.42   3 2.42   3 2.42
   2  0.333  0.667  0.062-   1 2.42   1 2.42   1 2.42
   3  0.333  0.667  0.152-   1 2.42   1 2.42   1 2.42
 
  LATTYP: Found a hexagonal cell.
 ALAT       =     3.1903160000
 C/A-ratio  =    10.9327740575
  
  Lattice vectors:
  
 A1 = (   1.5951580000,  -2.7628940000,   0.0000000000)
 A2 = (   1.5951580000,   2.7628940000,   0.0000000000)
 A3 = (   0.0000000000,   0.0000000000,  34.8790040000)


Analysis of symmetry for initial positions (statically):
=====================================================================
 Subroutine PRICEL returns:
 Original cell was already a primitive cell.
 

 Routine SETGRP: Setting up the symmetry group for a 
 hexagonal supercell.


 Subroutine GETGRP returns: Found 12 space group operations
 (whereof  6 operations were pure point group operations)
 out of a pool of 24 trial point group operations.


The static configuration has the point symmetry C_3v.
 The point group associated with its full space group is D_3h.


Analysis of symmetry for dynamics (positions and initial velocities):
=====================================================================
 Subroutine PRICEL returns:
 Original cell was already a primitive cell.
 

 Routine SETGRP: Setting up the symmetry group for a 
 hexagonal supercell.


 Subroutine GETGRP returns: Found 12 space group operations
 (whereof  6 operations were pure point group operations)
 out of a pool of 24 trial point group operations.


The dynamic configuration has the point symmetry C_3v.
 The point group associated with its full space group is D_3h.


Analysis of magnetic symmetry:
=====================================================================

 Subroutine MAGSYM returns: Found 12 space group operations
 (whereof  6 operations were pure point group operations)
 out of a pool of 12 trial space group operations
 (whereof  6 operations were pure point group operations)
 and found also     1 'primitive' translations


The magnetic configuration has the point symmetry C_3v.
 The point group associated with its full space group is D_3h.


 irot  :   1
 --------------------------------------------------------------------
 isymop:   1   0   0
           0   1   0
           0   0   1

 gtrans:     0.0000000     0.0000000     0.0000000

 ptrans:     0.0000000     0.0000000     0.0000000
 rotmap:
 (   1->   1)  (   2->   2)  (   3->   3) 


 irot  :   2
 --------------------------------------------------------------------
 isymop:   0  -1   0
           1  -1   0
           0   0   1

 gtrans:     0.0000000     0.0000000     0.0000000

 ptrans:     0.0000000     0.0000000     0.0000000
 rotmap:
 (   1->   1)  (   2->   2)  (   3->   3) 


 irot  :   3
 --------------------------------------------------------------------
 isymop:  -1   1   0
          -1   0   0
           0   0   1

 gtrans:     0.0000000     0.0000000     0.0000000

 ptrans:     0.0000000     0.0000000     0.0000000
 rotmap:
 (   1->   1)  (   2->   2)  (   3->   3) 


 irot  :   4
 --------------------------------------------------------------------
 isymop:  -1   1   0
           0   1   0
           0   0   1

 gtrans:     0.0000000     0.0000000     0.0000000

 ptrans:     0.0000000     0.0000000     0.0000000
 rotmap:
 (   1->   1)  (   2->   2)  (   3->   3) 


 irot  :   5
 --------------------------------------------------------------------
 isymop:   1   0   0
           1  -1   0
           0   0   1

 gtrans:     0.0000000     0.0000000     0.0000000

 ptrans:     0.0000000     0.0000000     0.0000000
 rotmap:
 (   1->   1)  (   2->   2)  (   3->   3) 


 irot  :   6
 --------------------------------------------------------------------
 isymop:   0  -1   0
          -1   0   0
           0   0   1

 gtrans:     0.0000000     0.0000000     0.0000000

 ptrans:     0.0000000     0.0000000     0.0000000
 rotmap:
 (   1->   1)  (   2->   2)  (   3->   3) 


 irot  :   7
 --------------------------------------------------------------------
 isymop:  -1   1   0
          -1   0   0
           0   0  -1

 gtrans:     0.0000010     0.0000000     0.2132940

 ptrans:     0.0000000     0.0000000     0.0000000
 rotmap:
 (   1->   1)  (   2->   3)  (   3->   2) 


 irot  :   8
 --------------------------------------------------------------------
 isymop:   1   0   0
           0   1   0
           0   0  -1

 gtrans:     0.0000000     0.0000000     0.2132940

 ptrans:     0.0000000     0.0000000     0.0000000
 rotmap:
 (   1->   1)  (   2->   3)  (   3->   2) 


 irot  :   9
 --------------------------------------------------------------------
 isymop:   0  -1   0
           1  -1   0
           0   0  -1

 gtrans:     0.0000000     0.0000000     0.2132940

 ptrans:     0.0000000     0.0000000     0.0000000
 rotmap:
 (   1->   1)  (   2->   3)  (   3->   2) 


 irot  :  10
 --------------------------------------------------------------------
 isymop:   0  -1   0
          -1   0   0
           0   0  -1

 gtrans:     0.0000000     0.0000000     0.2132940

 ptrans:     0.0000000     0.0000000     0.0000000
 rotmap:
 (   1->   1)  (   2->   3)  (   3->   2) 


 irot  :  11
 --------------------------------------------------------------------
 isymop:  -1   1   0
           0   1   0
           0   0  -1

 gtrans:     0.0000010     0.0000000     0.2132940

 ptrans:     0.0000000     0.0000000     0.0000000
 rotmap:
 (   1->   1)  (   2->   3)  (   3->   2) 


 irot  :  12
 --------------------------------------------------------------------
 isymop:   1   0   0
           1  -1   0
           0   0  -1

 gtrans:     0.0000000     0.0000000     0.2132940

 ptrans:     0.0000000     0.0000000     0.0000000
 rotmap:
 (   1->   1)  (   2->   3)  (   3->   2) 
 
 
 KPOINTS: Automatic kpoint scheme                 

Automatic generation of k-mesh.
Space group operators:
 irot       det(A)        alpha          n_x          n_y          n_z        tau_x        tau_y        tau_z
    1     1.000000     0.000001     1.000000     0.000000     0.000000     0.000000     0.000000     0.000000
    2     1.000000   120.000000     0.000000     0.000000    -1.000000     0.000000     0.000000     0.000000
    3     1.000000   120.000000     0.000000     0.000000     1.000000     0.000000     0.000000     0.000000
    4    -1.000000   180.000000     0.500000    -0.866025     0.000000     0.000000     0.000000     0.000000
    5    -1.000000   180.000000    -0.500000    -0.866025     0.000000     0.000000     0.000000     0.000000
    6    -1.000000   180.000000     1.000000     0.000000     0.000000     0.000000     0.000000     0.000000
    7    -1.000000    60.000000     0.000000     0.000000    -1.000000     0.000001     0.000000     0.213294
    8    -1.000000   180.000000     0.000000     0.000000     1.000000     0.000000     0.000000     0.213294
    9    -1.000000    60.000000     0.000000     0.000000     1.000000     0.000000     0.000000     0.213294
   10     1.000000   180.000000     0.000000     1.000000     0.000000     0.000000     0.000000     0.213294
   11     1.000000   180.000000     0.866025     0.500000     0.000000     0.000001     0.000000     0.213294
   12     1.000000   180.000000     0.866025    -0.500000     0.000000     0.000000     0.000000     0.213294
 
 Subroutine IBZKPT returns following result:
 ===========================================
 
 Found     12 irreducible k-points:
 
 Following reciprocal coordinates:
            Coordinates               Weight
  0.000000  0.000000  0.000000      1.000000
  0.111111  0.000000  0.000000      6.000000
  0.222222  0.000000  0.000000      6.000000
  0.333333  0.000000  0.000000      6.000000
  0.444444  0.000000  0.000000      6.000000
  0.111111  0.111111  0.000000      6.000000
  0.222222  0.111111  0.000000     12.000000
  0.333333  0.111111  0.000000     12.000000
  0.444444  0.111111  0.000000      6.000000
  0.222222  0.222222  0.000000      6.000000
  0.333333  0.222222  0.000000     12.000000
  0.333333  0.333333  0.000000      2.000000
 
 Following cartesian coordinates:
            Coordinates               Weight
  0.000000  0.000000  0.000000      1.000000
  0.034828 -0.020108  0.000000      6.000000
  0.069655 -0.040215  0.000000      6.000000
  0.104483 -0.060323  0.000000      6.000000
  0.139310 -0.080431  0.000000      6.000000
  0.069655  0.000000  0.000000      6.000000
  0.104483 -0.020108  0.000000     12.000000
  0.139310 -0.040215  0.000000     12.000000
  0.174138 -0.060323  0.000000      6.000000
  0.139310  0.000000  0.000000      6.000000
  0.174138 -0.020108  0.000000     12.000000
  0.208966  0.000000  0.000000      2.000000
 


--------------------------------------------------------------------------------------------------------




 Dimension of arrays:
   k-points           NKPTS =     12   k-points in BZ     NKDIM =     12   number of bands    NBANDS=     20
   number of dos      NEDOS =   5000   number of ions     NIONS =      3
   non local maximal  LDIM  =      6   non local SUM 2l+1 LMDIM =     18
   total plane-waves  NPLWV = 219520
   max r-space proj   IRMAX =      1   max aug-charges    IRDMAX=  38030
   dimension x,y,z NGX =    28 NGY =   28 NGZ =  280
   dimension x,y,z NGXF=    56 NGYF=   56 NGZF=  560
   support grid    NGXF=    56 NGYF=   56 NGZF=  560
   ions per type =               1   2
 NGX,Y,Z   is equivalent  to a cutoff of  14.59, 14.59, 13.35 a.u.
 NGXF,Y,Z  is equivalent  to a cutoff of  29.18, 29.18, 26.69 a.u.


 I would recommend the setting:
   dimension x,y,z NGX =    25 NGY =   25 NGZ =  279
 SYSTEM =  unknown system                          
 POSCAR =  Surf-mp-2815                            

 Startparameter for this run:
   NWRITE =      2    write-flag & timer
   PREC   = accura    normal or accurate (medium, high low for compatibility)
   ISTART =      0    job   : 0-new  1-cont  2-samecut
   ICHARG =      2    charge: 1-file 2-atom 10-const
   ISPIN  =      2    spin polarized calculation?
   LNONCOLLINEAR =      F non collinear calculations
   LSORBIT =      F    spin-orbit coupling
   INIWAV =      1    electr: 0-lowe 1-rand  2-diag
   LASPH  =      F    aspherical Exc in radial PAW
   METAGGA=      F    non-selfconsistent MetaGGA calc.

 Electronic Relaxation 1
   ENCUT  =  600.0 eV  44.10 Ry    6.64 a.u.   6.37  6.37 69.66*2*pi/ulx,y,z
   ENINI  =  600.0     initial cutoff
   ENAUG  =  392.4 eV  augmentation charge cutoff
   NELM   =    500;   NELMIN=  2; NELMDL= -5     # of ELM steps 
   EDIFF  = 0.1E-06   stopping-criterion for ELM
   LREAL  =      F    real-space projection
   NLSPLINE    = F    spline interpolate recip. space projectors
   LCOMPAT=      F    compatible to vasp.4.4
   GGA_COMPAT  = T    GGA compatible to vasp.4.4-vasp.4.6
   LMAXPAW     = -100 max onsite density
   LMAXMIX     =    2 max onsite mixed and CHGCAR
   VOSKOWN=      0    Vosko Wilk Nusair interpolation
   ROPT   =    0.00000   0.00000
 Ionic relaxation
   EDIFFG = -.1E-02   stopping-criterion for IOM
   NSW    =    500    number of steps for IOM
   NBLOCK =      1;   KBLOCK =    500    inner block; outer block 
   IBRION =      1    ionic relax: 0-MD 1-quasi-New 2-CG
   NFREE  =      0    steps in history (QN), initial steepest desc. (CG)
   ISIF   =      3    stress and relaxation
   IWAVPR =     11    prediction:  0-non 1-charg 2-wave 3-comb
   ISYM   =      2    0-nonsym 1-usesym 2-fastsym
   LCORR  =      T    Harris-Foulkes like correction to forces

   POTIM  = 0.5000    time-step for ionic-motion
   TEIN   =    0.0    initial temperature
   TEBEG  =    0.0;   TEEND  =   0.0 temperature during run
   SMASS  =  -3.00    Nose mass-parameter (am)
   estimated Nose-frequenzy (Omega)   =  0.10E-29 period in steps =****** mass=  -0.233E-27a.u.
   SCALEE = 1.0000    scale energy and forces
   NPACO  =    256;   APACO  = 16.0  distance and # of slots for P.C.
   PSTRESS=    0.0 pullay stress

  Mass of Ions in am
   POMASS =  95.94 32.07
  Ionic Valenz
   ZVAL   =  12.00  6.00
  Atomic Wigner-Seitz radii
   RWIGS  =  -1.00 -1.00
  virtual crystal weights 
   VCA    =   1.00  1.00
   NELECT =      24.0000    total number of electrons
   NUPDOWN=      -1.0000    fix difference up-down

 DOS related values:
   EMIN   =  10.00;   EMAX   =-10.00  energy-range for DOS
   EFERMI =   0.00
   ISMEAR =     0;   SIGMA  =   0.20  broadening in eV -4-tet -1-fermi 0-gaus

 Electronic relaxation 2 (details)
   IALGO  =     38    algorithm
   LDIAG  =      T    sub-space diagonalisation (order eigenvalues)
   LSUBROT=      T    optimize rotation matrix (better conditioning)
   TURBO    =      0    0=normal 1=particle mesh
   IRESTART =      0    0=no restart 2=restart with 2 vectors
   NREBOOT  =      0    no. of reboots
   NMIN     =      0    reboot dimension
   EREF     =   0.00    reference energy to select bands
   IMIX   =      4    mixing-type and parameters
     AMIX     =   0.40;   BMIX     =  1.00
     AMIX_MAG =   1.60;   BMIX_MAG =  1.00
     AMIN     =   0.10
     WC   =   100.;   INIMIX=   1;  MIXPRE=   1;  MAXMIX= -45

 Intra band minimization:
   WEIMIN = 0.0010     energy-eigenvalue tresh-hold
   EBREAK =  0.13E-08  absolut break condition
   DEPER  =   0.30     relativ break condition  

   TIME   =   0.40     timestep for ELM

  volume/ion in A,a.u.               =     102.48       691.57
  Fermi-wavevector in a.u.,A,eV,Ry     =   0.699667  1.322178  6.660509  0.489534
  Thomas-Fermi vector in A             =   1.783608
 
 Write flags
   LWAVE  =      F    write WAVECAR
   LCHARG =      F    write CHGCAR
   LVTOT  =      F    write LOCPOT, total local potential
   LVHAR  =      T    write LOCPOT, Hartree potential only
   LELF   =      F    write electronic localiz. function (ELF)
   LORBIT =     11    0 simple, 1 ext, 2 COOP (PROOUT)


 Dipole corrections
   LMONO  =      F    monopole corrections only (constant potential shift)
   LDIPOL =      F    correct potential (dipole corrections)
   IDIPOL =      0    1-x, 2-y, 3-z, 4-all directions 
   EPSILON=  1.0000000 bulk dielectric constant

 Exchange correlation treatment:
   GGA     =    BO    GGA type
   LEXCH   =    42    internal setting for exchange type
   VOSKOWN=      0    Vosko Wilk Nusair interpolation
   LHFCALC =     F    Hartree Fock is set to
   LHFONE  =     F    Hartree Fock one center treatment
   AEXX    =    0.0000 exact exchange contribution

 vdW DFT:
   LUSE_VDW   =     T    switch on vdW DFT
   Zab_VDW    =-.8491    correlation parameter
   PARAM1     =0.1833
   PARAM2     =0.2200
   PARAM3     =0.0000

 Linear response parameters
   LEPSILON=     F    determine dielectric tensor
   LRPA    =     F    only Hartree local field effects (RPA)
   LNABLA  =     F    use nabla operator in PAW spheres
   LVEL    =     F    velocity operator in full k-point grid
   LINTERFAST=   F  fast interpolation
   KINTER  =     0    interpolate to denser k-point grid
   CSHIFT  =0.1000    complex shift for real part using Kramers Kronig
   OMEGAMAX=  -1.0    maximum frequency
   DEG_THRESHOLD= 0.2000000E-02 threshold for treating states as degnerate
   RTIME   =    0.100 relaxation time in fs

 Orbital magnetization related:
   ORBITALMAG=     F  switch on orbital magnetization
   LCHIMAG   =     F  perturbation theory with respect to B field
   DQ        =  0.001000  dq finite difference perturbation B field



--------------------------------------------------------------------------------------------------------


 quasi-Newton-method for relaxation of ions
 charge density and potential will be updated during run
 spin polarized calculation
 Variant of blocked Davidson
 Davidson routine will perform the subspace rotation
 perform sub-space diagonalisation
    after iterative eigenvector-optimisation
 modified Broyden-mixing scheme, WC =      100.0
 initial mixing is a Kerker type mixing with AMIX =  0.4000 and BMIX =      1.0000
 Hartree-type preconditioning will be used
 using additional bands            8
 reciprocal scheme for non local part
 use partial core corrections
 calculate Harris-corrections to forces 
   (improved forces if not selfconsistent)
 use gradient corrections 
 use of overlap-Matrix (Vanderbilt PP)
 Gauss-broadening in eV      SIGMA  =   0.20


--------------------------------------------------------------------------------------------------------


  energy-cutoff  :      600.00
  volume of cell :      307.44
      direct lattice vectors                 reciprocal lattice vectors
     1.595158000 -2.762894000  0.000000000     0.313448574 -0.180969664  0.000000000
     1.595158000  2.762894000  0.000000000     0.313448574  0.180969664  0.000000000
     0.000000000  0.000000000 34.879004000     0.000000000  0.000000000  0.028670543

  length of vectors
     3.190315392  3.190315392 34.879004000     0.361939260  0.361939260  0.028670543


 
 k-points in units of 2pi/SCALE and weight: Automatic kpoint scheme                 
   0.00000000  0.00000000  0.00000000       0.012
   0.03482762 -0.02010774  0.00000000       0.074
   0.06965524 -0.04021548  0.00000000       0.074
   0.10448286 -0.06032322  0.00000000       0.074
   0.13931048 -0.08043096  0.00000000       0.074
   0.06965524  0.00000000  0.00000000       0.074
   0.10448286 -0.02010774  0.00000000       0.148
   0.13931048 -0.04021548  0.00000000       0.148
   0.17413810 -0.06032322  0.00000000       0.074
   0.13931048  0.00000000  0.00000000       0.074
   0.17413810 -0.02010774  0.00000000       0.148
   0.20896572  0.00000000  0.00000000       0.025
 
 k-points in reciprocal lattice and weights: Automatic kpoint scheme                 
   0.00000000  0.00000000  0.00000000       0.012
   0.11111111  0.00000000  0.00000000       0.074
   0.22222222  0.00000000  0.00000000       0.074
   0.33333333  0.00000000  0.00000000       0.074
   0.44444444  0.00000000  0.00000000       0.074
   0.11111111  0.11111111  0.00000000       0.074
   0.22222222  0.11111111  0.00000000       0.148
   0.33333333  0.11111111  0.00000000       0.148
   0.44444444  0.11111111  0.00000000       0.074
   0.22222222  0.22222222  0.00000000       0.074
   0.33333333  0.22222222  0.00000000       0.148
   0.33333333  0.33333333  0.00000000       0.025
 
 position of ions in fractional coordinates (direct lattice) 
   0.66666700  0.33333300  0.10664700
   0.33333300  0.66666700  0.06178100
   0.33333300  0.66666700  0.15151400
 
 position of ions in cartesian coordinates  (Angst):
   1.59515800 -0.92096651  3.71974114
   1.59515800  0.92096651  2.15485975
   1.59515800  0.92096651  5.28465741
 


--------------------------------------------------------------------------------------------------------


 k-point  1 :   0.0000 0.0000 0.0000  plane waves:   10243
 k-point  2 :   0.1111 0.0000 0.0000  plane waves:   10307
 k-point  3 :   0.2222 0.0000 0.0000  plane waves:   10331
 k-point  4 :   0.3333 0.0000 0.0000  plane waves:   10275
 k-point  5 :   0.4444 0.0000 0.0000  plane waves:   10241
 k-point  6 :   0.1111 0.1111 0.0000  plane waves:   10333
 k-point  7 :   0.2222 0.1111 0.0000  plane waves:   10273
 k-point  8 :   0.3333 0.1111 0.0000  plane waves:   10251
 k-point  9 :   0.4444 0.1111 0.0000  plane waves:   10224
 k-point 10 :   0.2222 0.2222 0.0000  plane waves:   10240
 k-point 11 :   0.3333 0.2222 0.0000  plane waves:   10214
 k-point 12 :   0.3333 0.3333 0.0000  plane waves:   10182

 maximum and minimum number of plane-waves per node :      2602     2540

 maximum number of plane-waves:     10333
 maximum index in each direction: 
   IXMAX=    6   IYMAX=    6   IZMAX=   69
   IXMIN=   -6   IYMIN=   -6   IZMIN=  -69

 NGX is ok and might be reduce to  26
 NGY is ok and might be reduce to  26
 NGZ is ok and might be reduce to 278

 parallel 3D FFT for wavefunctions:
    minimum data exchange during FFTs selected (reduces bandwidth)
 parallel 3D FFT for charge:
    minimum data exchange during FFTs selected (reduces bandwidth)


 total amount of memory used by VASP on root node    64214. kBytes
========================================================================

   base      :      30000. kBytes
   nonl-proj :       9040. kBytes
   fftplans  :       5691. kBytes
   grid      :      14460. kBytes
   one-center:         31. kBytes
   wavefun   :       4992. kBytes
 
 Broyden mixing: mesh for mixing (old mesh)
   NGX = 13   NGY = 13   NGZ =139
  (NGX  = 56   NGY  = 56   NGZ  =560)
  gives a total of  23491 points

 initial charge density was supplied:
 charge density of overlapping atoms calculated
 number of electron      24.0000000 magnetization       3.0000000
 keeping initial charge density in first step


--------------------------------------------------------------------------------------------------------


 Maximum index for augmentation-charges         2670 (set IRDMAX)


--------------------------------------------------------------------------------------------------------


 First call to EWALD:  gamma=   0.263
 Maximum number of real-space cells 6x 6x 1
 Maximum number of reciprocal cells 2x 2x12

 FEWALD executed in parallel
    FEWALD:  cpu time    0.00: real time    0.00


----------------------------------------- Iteration    1(   1)  ---------------------------------------


vdW kernel read from vdw_kernel.bindat
  0.0000  0.2424  0.5071  0.7962  1.1119  1.4567  1.8333  2.2446  2.6937  3.1842
  3.7199  4.3049  4.9438  5.6415  6.4036  7.2358  8.1446  9.1372 10.2212 11.4050
 12.6979 14.1099 15.6519 17.3360 19.1751 21.1837 23.3773 25.7729 28.3892 31.2465
 34.3669 37.7748 41.4965 45.5611 50.0000
 
    POTLOK:  cpu time   11.64: real time   11.68
    SETDIJ:  cpu time    0.02: real time    0.03
     EDDAV:  cpu time    6.18: real time    6.21
       DOS:  cpu time    0.01: real time    0.01
    --------------------------------------------
      LOOP:  cpu time   17.86: real time   18.09

 eigenvalue-minimisations  :  1160
 total energy-change (2. order) : 0.1611871E+03  (-0.1040528E+04)
 number of electron      24.0000000 magnetization       3.0000000
 augmentation part       24.0000000 magnetization       3.0000000

 Free energy of the ion-electron system (eV)
  ---------------------------------------------------
  alpha Z        PSCENC =        12.99286541
  Ewald energy   TEWEN  =     11817.94590715
  -1/2 Hartree   DENC   =    -13382.43328010
  -exchange  EXHF       =         0.00000000
  -V(xc)+E(xc)   XCENC  =        61.76182837
  PAW double counting   =      1530.01465325    -1506.73800925
  entropy T*S    EENTRO =        -0.05307835
  eigenvalues    EBANDS =      -220.56340850
  atomic energy  EATOM  =      1848.25967021
  ---------------------------------------------------
  free energy    TOTEN  =       161.18714818 eV

  energy without entropy =      161.24022653  energy(sigma->0) =      161.21368736


--------------------------------------------------------------------------------------------------------




----------------------------------------- Iteration    1(   2)  ---------------------------------------


     EDDAV:  cpu time    6.76: real time    6.79
       DOS:  cpu time    0.01: real time    0.01
    --------------------------------------------
      LOOP:  cpu time    6.77: real time    6.98

 eigenvalue-minimisations  :  1332
 total energy-change (2. order) :-0.1587909E+03  (-0.1506354E+03)
 number of electron      24.0000000 magnetization       3.0000000
 augmentation part       24.0000000 magnetization       3.0000000

 Free energy of the ion-electron system (eV)
  ---------------------------------------------------
  alpha Z        PSCENC =        12.99286541
  Ewald energy   TEWEN  =     11817.94590715
  -1/2 Hartree   DENC   =    -13382.43328010
  -exchange  EXHF       =         0.00000000
  -V(xc)+E(xc)   XCENC  =        61.76182837
  PAW double counting   =      1530.01465325    -1506.73800925
  entropy T*S    EENTRO =        -0.00000294
  eigenvalues    EBANDS =      -379.40737437
  atomic energy  EATOM  =      1848.25967021
  ---------------------------------------------------
  free energy    TOTEN  =         2.39625773 eV

  energy without entropy =        2.39626066  energy(sigma->0) =        2.39625919


--------------------------------------------------------------------------------------------------------




----------------------------------------- Iteration    1(   3)  ---------------------------------------


     EDDAV:  cpu time    8.00: real time    8.05
       DOS:  cpu time    0.01: real time    0.01
    --------------------------------------------
      LOOP:  cpu time    8.02: real time    8.22

 eigenvalue-minimisations  :  1320
 total energy-change (2. order) :-0.1894869E+02  (-0.1886525E+02)
 number of electron      24.0000000 magnetization       3.0000000
 augmentation part       24.0000000 magnetization       3.0000000

 Free energy of the ion-electron system (eV)
  ---------------------------------------------------
  alpha Z        PSCENC =        12.99286541
  Ewald energy   TEWEN  =     11817.94590715
  -1/2 Hartree   DENC   =    -13382.43328010
  -exchange  EXHF       =         0.00000000
  -V(xc)+E(xc)   XCENC  =        61.76182837
  PAW double counting   =      1530.01465325    -1506.73800925
  entropy T*S    EENTRO =        -0.00000098
  eigenvalues    EBANDS =      -398.35606191
  atomic energy  EATOM  =      1848.25967021
  ---------------------------------------------------
  free energy    TOTEN  =       -16.55242786 eV

  energy without entropy =      -16.55242688  energy(sigma->0) =      -16.55242737


--------------------------------------------------------------------------------------------------------




----------------------------------------- Iteration    1(   4)  ---------------------------------------


     EDDAV:  cpu time    7.82: real time    8.15
       DOS:  cpu time    0.01: real time    0.01
    --------------------------------------------
      LOOP:  cpu time    7.84: real time    8.33

 eigenvalue-minimisations  :  1384
 total energy-change (2. order) :-0.3122158E+00  (-0.3114544E+00)
 number of electron      24.0000000 magnetization       3.0000000
 augmentation part       24.0000000 magnetization       3.0000000

 Free energy of the ion-electron system (eV)
  ---------------------------------------------------
  alpha Z        PSCENC =        12.99286541
  Ewald energy   TEWEN  =     11817.94590715
  -1/2 Hartree   DENC   =    -13382.43328010
  -exchange  EXHF       =         0.00000000
  -V(xc)+E(xc)   XCENC  =        61.76182837
  PAW double counting   =      1530.01465325    -1506.73800925
  entropy T*S    EENTRO =        -0.00000113
  eigenvalues    EBANDS =      -398.66827758
  atomic energy  EATOM  =      1848.25967021
  ---------------------------------------------------
  free energy    TOTEN  =       -16.86464367 eV

  energy without entropy =      -16.86464254  energy(sigma->0) =      -16.86464311


--------------------------------------------------------------------------------------------------------




----------------------------------------- Iteration    1(   5)  ---------------------------------------


     EDDAV:  cpu time    7.34: real time    7.36
       DOS:  cpu time    0.01: real time    0.01
    CHARGE:  cpu time    0.50: real time    0.50
    MIXING:  cpu time    0.02: real time    0.02
    --------------------------------------------
      LOOP:  cpu time    7.86: real time    8.20

 eigenvalue-minimisations  :  1292
 total energy-change (2. order) :-0.6170234E-02  (-0.6168222E-02)
 number of electron      23.9999999 magnetization       2.8491300
 augmentation part        2.4486299 magnetization       2.8348152

 Broyden mixing:
  rms(total) = 0.25661E+01    rms(broyden)= 0.25661E+01
  rms(prec ) = 0.25770E+01
  weight for this iteration     100.00

 Free energy of the ion-electron system (eV)
  ---------------------------------------------------
  alpha Z        PSCENC =        12.99286541
  Ewald energy   TEWEN  =     11817.94590715
  -1/2 Hartree   DENC   =    -13382.43328010
  -exchange  EXHF       =         0.00000000
  -V(xc)+E(xc)   XCENC  =        61.76182837
  PAW double counting   =      1530.01465325    -1506.73800925
  entropy T*S    EENTRO =        -0.00000114
  eigenvalues    EBANDS =      -398.67444780
  atomic energy  EATOM  =      1848.25967021
  ---------------------------------------------------
  free energy    TOTEN  =       -16.87081390 eV

  energy without entropy =      -16.87081277  energy(sigma->0) =      -16.87081333


--------------------------------------------------------------------------------------------------------




----------------------------------------- Iteration    1(   6)  ---------------------------------------


    POTLOK:  cpu time   10.59: real time   10.61
    SETDIJ:  cpu time    0.02: real time    0.02
     EDDAV:  cpu time    6.41: real time    6.43
       DOS:  cpu time    0.01: real time    0.01
    CHARGE:  cpu time    0.44: real time    0.44
    MIXING:  cpu time    0.02: real time    0.02
    --------------------------------------------
      LOOP:  cpu time   17.49: real time   17.83

 eigenvalue-minimisations  :  1152
 total energy-change (2. order) : 0.1636336E+01  (-0.1721908E+01)
 number of electron      23.9999999 magnetization       2.7010655
 augmentation part        3.1701989 magnetization       2.6636510

 Broyden mixing:
  rms(total) = 0.11155E+01    rms(broyden)= 0.11155E+01
  rms(prec ) = 0.11262E+01
  weight for this iteration     100.00

 eigenvalues of (default mixing * dielectric matrix)
  average eigenvalue GAMMA=   1.0002
  1.0002

 Free energy of the ion-electron system (eV)
  ---------------------------------------------------
  alpha Z        PSCENC =        12.99286541
  Ewald energy   TEWEN  =     11817.94590715
  -1/2 Hartree   DENC   =    -13357.04922021
  -exchange  EXHF       =         0.00000000
  -V(xc)+E(xc)   XCENC  =        61.55543370
  PAW double counting   =      1924.36352959    -1904.39269044
  entropy T*S    EENTRO =        -0.00013769
  eigenvalues    EBANDS =      -418.90983544
  atomic energy  EATOM  =      1848.25967021
  ---------------------------------------------------
  free energy    TOTEN  =       -15.23447772 eV

  energy without entropy =      -15.23434003  energy(sigma->0) =      -15.23440888


--------------------------------------------------------------------------------------------------------




----------------------------------------- Iteration    1(   7)  ---------------------------------------


    POTLOK:  cpu time   10.03: real time   10.06
    SETDIJ:  cpu time    0.02: real time    0.02
     EDDAV:  cpu time    6.38: real time    6.40
       DOS:  cpu time    0.01: real time    0.01
    CHARGE:  cpu time    0.46: real time    0.46
    MIXING:  cpu time    0.01: real time    0.01
    --------------------------------------------
      LOOP:  cpu time   16.92: real time   17.06

 eigenvalue-minimisations  :  1152
 total energy-change (2. order) :-0.5254379E-01  (-0.7722133E+00)
 number of electron      23.9999999 magnetization       2.4796966
 augmentation part        2.7387605 magnetization       2.4660732

 Broyden mixing:
  rms(total) = 0.78114E+00    rms(broyden)= 0.78114E+00
  rms(prec ) = 0.78825E+00
  weight for this iteration     100.00

 eigenvalues of (default mixing * dielectric matrix)
  average eigenvalue GAMMA=   1.2150
  1.7918  0.6383

 Free energy of the ion-electron system (eV)
  ---------------------------------------------------
  alpha Z        PSCENC =        12.99286541
  Ewald energy   TEWEN  =     11817.94590715
  -1/2 Hartree   DENC   =    -13380.90542683
  -exchange  EXHF       =         0.00000000
  -V(xc)+E(xc)   XCENC  =        61.70001031
  PAW double counting   =      2279.52695743    -2259.51457820
  entropy T*S    EENTRO =        -0.00000004
  eigenvalues    EBANDS =      -395.29242695
  atomic energy  EATOM  =      1848.25967021
  ---------------------------------------------------
  free energy    TOTEN  =       -15.28702151 eV

  energy without entropy =      -15.28702147  energy(sigma->0) =      -15.28702149


--------------------------------------------------------------------------------------------------------




----------------------------------------- Iteration    1(   8)  ---------------------------------------


    POTLOK:  cpu time   10.01: real time   10.03
    SETDIJ:  cpu time    0.02: real time    0.02
     EDDAV:  cpu time    5.76: real time    5.78
       DOS:  cpu time    0.01: real time    0.01
    CHARGE:  cpu time    0.43: real time    0.43
    MIXING:  cpu time    0.01: real time    0.01
    --------------------------------------------
      LOOP:  cpu time   16.24: real time   16.65

 eigenvalue-minimisations  :  1096
 total energy-change (2. order) : 0.1396939E+00  (-0.2030781E+00)
 number of electron      23.9999999 magnetization       2.2895009
 augmentation part        2.9701480 magnetization       2.2791209

 Broyden mixing:
  rms(total) = 0.29888E+00    rms(broyden)= 0.29888E+00
  rms(prec ) = 0.29982E+00
  weight for this iteration     100.00

 eigenvalues of (default mixing * dielectric matrix)
  average eigenvalue GAMMA=   1.2910
  2.3064  0.9613  0.6053

 Free energy of the ion-electron system (eV)
  ---------------------------------------------------
  alpha Z        PSCENC =        12.99286541
  Ewald energy   TEWEN  =     11817.94590715
  -1/2 Hartree   DENC   =    -13372.57414628
  -exchange  EXHF       =         0.00000000
  -V(xc)+E(xc)   XCENC  =        61.58551377
  PAW double counting   =      2667.60384808    -2649.10955048
  entropy T*S    EENTRO =        -0.00000005
  eigenvalues    EBANDS =      -401.85143547
  atomic energy  EATOM  =      1848.25967021
  ---------------------------------------------------
  free energy    TOTEN  =       -15.14732765 eV

  energy without entropy =      -15.14732760  energy(sigma->0) =      -15.14732762


--------------------------------------------------------------------------------------------------------




----------------------------------------- Iteration    1(   9)  ---------------------------------------


    POTLOK:  cpu time   10.46: real time   10.47
    SETDIJ:  cpu time    0.02: real time    0.02
     EDDAV:  cpu time    6.26: real time    6.28
       DOS:  cpu time    0.01: real time    0.01
    CHARGE:  cpu time    0.47: real time    0.47
    MIXING:  cpu time    0.03: real time    0.03
    --------------------------------------------
      LOOP:  cpu time   17.25: real time   17.55

 eigenvalue-minimisations  :  1056
 total energy-change (2. order) :-0.1197333E+00  (-0.1424992E-01)
 number of electron      23.9999999 magnetization       2.1042404
 augmentation part        2.9567111 magnetization       2.0909995

 Broyden mixing:
  rms(total) = 0.22214E+00    rms(broyden)= 0.22214E+00
  rms(prec ) = 0.22242E+00
  weight for this iteration     100.00

 eigenvalues of (default mixing * dielectric matrix)
  average eigenvalue GAMMA=   1.2534
  2.5158  1.1230  0.6874  0.6874

 Free energy of the ion-electron system (eV)
  ---------------------------------------------------
  alpha Z        PSCENC =        12.99286541
  Ewald energy   TEWEN  =     11817.94590715
  -1/2 Hartree   DENC   =    -13375.47140368
  -exchange  EXHF       =         0.00000000
  -V(xc)+E(xc)   XCENC  =        61.59079531
  PAW double counting   =      2805.56353386    -2787.28222329
  entropy T*S    EENTRO =        -0.00000001
  eigenvalues    EBANDS =      -398.86620591
  atomic energy  EATOM  =      1848.25967021
  ---------------------------------------------------
  free energy    TOTEN  =       -15.26706095 eV

  energy without entropy =      -15.26706094  energy(sigma->0) =      -15.26706094


--------------------------------------------------------------------------------------------------------




----------------------------------------- Iteration    1(  10)  ---------------------------------------


    POTLOK:  cpu time   10.28: real time   10.29
    SETDIJ:  cpu time    0.02: real time    0.02
     EDDAV:  cpu time    6.44: real time    6.45
       DOS:  cpu time    0.01: real time    0.01
    CHARGE:  cpu time    0.47: real time    0.47
    MIXING:  cpu time    0.01: real time    0.01
    --------------------------------------------
      LOOP:  cpu time   17.23: real time   17.47

 eigenvalue-minimisations  :  1112
 total energy-change (2. order) :-0.6965675E-01  (-0.8138518E-02)
 number of electron      23.9999999 magnetization       1.7228190
 augmentation part        2.9451275 magnetization       1.7126340

 Broyden mixing:
  rms(total) = 0.17800E+00    rms(broyden)= 0.17800E+00
  rms(prec ) = 0.17812E+00
  weight for this iteration     100.00

 eigenvalues of (default mixing * dielectric matrix)
  average eigenvalue GAMMA=   1.4284
  3.0935  1.9335  0.8448  0.6350  0.6350

 Free energy of the ion-electron system (eV)
  ---------------------------------------------------
  alpha Z        PSCENC =        12.99286541
  Ewald energy   TEWEN  =     11817.94590715
  -1/2 Hartree   DENC   =    -13376.64885468
  -exchange  EXHF       =         0.00000000
  -V(xc)+E(xc)   XCENC  =        61.55540348
  PAW double counting   =      2837.54404409    -2819.23461949
  entropy T*S    EENTRO =        -0.00000001
  eigenvalues    EBANDS =      -397.75113385
  atomic energy  EATOM  =      1848.25967021
  ---------------------------------------------------
  free energy    TOTEN  =       -15.33671770 eV

  energy without entropy =      -15.33671769  energy(sigma->0) =      -15.33671770


--------------------------------------------------------------------------------------------------------




----------------------------------------- Iteration    1(  11)  ---------------------------------------


    POTLOK:  cpu time   10.27: real time   10.29
    SETDIJ:  cpu time    0.02: real time    0.02
     EDDAV:  cpu time    6.46: real time    6.48
       DOS:  cpu time    0.00: real time    0.01
    CHARGE:  cpu time    0.49: real time    0.49
    MIXING:  cpu time    0.02: real time    0.02
    --------------------------------------------
      LOOP:  cpu time   17.28: real time   17.89

 eigenvalue-minimisations  :  1108
 total energy-change (2. order) :-0.1459763E+00  (-0.5333588E-02)
 number of electron      23.9999999 magnetization       1.2713197
 augmentation part        2.9131144 magnetization       1.2650005

 Broyden mixing:
  rms(total) = 0.14579E+00    rms(broyden)= 0.14579E+00
  rms(prec ) = 0.14618E+00
  weight for this iteration     100.00

 eigenvalues of (default mixing * dielectric matrix)
  average eigenvalue GAMMA=   1.6247
  3.9254  2.5315  1.2537  0.7729  0.6810  0.5840

 Free energy of the ion-electron system (eV)
  ---------------------------------------------------
  alpha Z        PSCENC =        12.99286541
  Ewald energy   TEWEN  =     11817.94590715
  -1/2 Hartree   DENC   =    -13379.87504709
  -exchange  EXHF       =         0.00000000
  -V(xc)+E(xc)   XCENC  =        61.51479699
  PAW double counting   =      2852.28119267    -2833.83789340
  entropy T*S    EENTRO =         0.00000000
  eigenvalues    EBANDS =      -394.76418593
  atomic energy  EATOM  =      1848.25967021
  ---------------------------------------------------
  free energy    TOTEN  =       -15.48269399 eV

  energy without entropy =      -15.48269399  energy(sigma->0) =      -15.48269399


--------------------------------------------------------------------------------------------------------




----------------------------------------- Iteration    1(  12)  ---------------------------------------


    POTLOK:  cpu time   10.25: real time   10.28
    SETDIJ:  cpu time    0.03: real time    0.03
     EDDAV:  cpu time    6.21: real time    6.23
       DOS:  cpu time    0.01: real time    0.01
    CHARGE:  cpu time    0.48: real time    0.48
    MIXING:  cpu time    0.02: real time    0.02
    --------------------------------------------
      LOOP:  cpu time   16.99: real time   17.20

 eigenvalue-minimisations  :  1024
 total energy-change (2. order) :-0.9019117E-01  (-0.2053170E-02)
 number of electron      23.9999999 magnetization       0.9555136
 augmentation part        2.9266027 magnetization       0.9531145

 Broyden mixing:
  rms(total) = 0.95893E-01    rms(broyden)= 0.95893E-01
  rms(prec ) = 0.96019E-01
  weight for this iteration     100.00

 eigenvalues of (default mixing * dielectric matrix)
  average eigenvalue GAMMA=   2.0791
  7.2588  2.6612  1.6827  0.9518  0.7584  0.6205  0.6205

 Free energy of the ion-electron system (eV)
  ---------------------------------------------------
  alpha Z        PSCENC =        12.99286541
  Ewald energy   TEWEN  =     11817.94590715
  -1/2 Hartree   DENC   =    -13381.50905629
  -exchange  EXHF       =         0.00000000
  -V(xc)+E(xc)   XCENC  =        61.44310996
  PAW double counting   =      2771.93831510    -2753.38980831
  entropy T*S    EENTRO =         0.00000000
  eigenvalues    EBANDS =      -393.25388839
  atomic energy  EATOM  =      1848.25967021
  ---------------------------------------------------
  free energy    TOTEN  =       -15.57288516 eV

  energy without entropy =      -15.57288516  energy(sigma->0) =      -15.57288516


--------------------------------------------------------------------------------------------------------




----------------------------------------- Iteration    1(  13)  ---------------------------------------


    POTLOK:  cpu time   10.19: real time   10.23
    SETDIJ:  cpu time    0.02: real time    0.02
     EDDAV:  cpu time    6.13: real time    6.15
       DOS:  cpu time    0.01: real time    0.01
    CHARGE:  cpu time    0.48: real time    0.48
    MIXING:  cpu time    0.02: real time    0.03
    --------------------------------------------
      LOOP:  cpu time   16.86: real time   17.08

 eigenvalue-minimisations  :  1080
 total energy-change (2. order) :-0.3280744E-01  (-0.1174338E-02)
 number of electron      23.9999999 magnetization       0.8093716
 augmentation part        2.9366384 magnetization       0.8088145

 Broyden mixing:
  rms(total) = 0.63750E-01    rms(broyden)= 0.63750E-01
  rms(prec ) = 0.63806E-01
  weight for this iteration     100.00

 eigenvalues of (default mixing * dielectric matrix)
  average eigenvalue GAMMA=   2.0905
  8.4088  2.5842  1.8331  1.1377  0.8376  0.6662  0.6662  0.5900

 Free energy of the ion-electron system (eV)
  ---------------------------------------------------
  alpha Z        PSCENC =        12.99286541
  Ewald energy   TEWEN  =     11817.94590715
  -1/2 Hartree   DENC   =    -13382.22570145
  -exchange  EXHF       =         0.00000000
  -V(xc)+E(xc)   XCENC  =        61.40733629
  PAW double counting   =      2780.63317863    -2762.16806228
  entropy T*S    EENTRO =         0.00000000
  eigenvalues    EBANDS =      -392.45088655
  atomic energy  EATOM  =      1848.25967021
  ---------------------------------------------------
  free energy    TOTEN  =       -15.60569260 eV

  energy without entropy =      -15.60569260  energy(sigma->0) =      -15.60569260


--------------------------------------------------------------------------------------------------------




----------------------------------------- Iteration    1(  14)  ---------------------------------------


    POTLOK:  cpu time   10.23: real time   10.26
    SETDIJ:  cpu time    0.02: real time    0.02
     EDDAV:  cpu time    7.00: real time    7.02
       DOS:  cpu time    0.01: real time    0.01
    CHARGE:  cpu time    0.47: real time    0.47
    MIXING:  cpu time    0.02: real time    0.02
    --------------------------------------------
      LOOP:  cpu time   17.75: real time   18.16

 eigenvalue-minimisations  :  1196
 total energy-change (2. order) :-0.7878784E-02  (-0.1906085E-03)
 number of electron      23.9999999 magnetization       0.5697381
 augmentation part        2.9351181 magnetization       0.5691304

 Broyden mixing:
  rms(total) = 0.53133E-01    rms(broyden)= 0.53133E-01
  rms(prec ) = 0.53153E-01
  weight for this iteration     100.00

 eigenvalues of (default mixing * dielectric matrix)
  average eigenvalue GAMMA=   2.2575
  9.7070  2.6728  2.6728  1.5817  1.0160  0.7958  0.5955  0.6379  0.6379

 Free energy of the ion-electron system (eV)
  ---------------------------------------------------
  alpha Z        PSCENC =        12.99286541
  Ewald energy   TEWEN  =     11817.94590715
  -1/2 Hartree   DENC   =    -13381.93640365
  -exchange  EXHF       =         0.00000000
  -V(xc)+E(xc)   XCENC  =        61.40028295
  PAW double counting   =      2803.93328532    -2785.52052853
  entropy T*S    EENTRO =         0.00000000
  eigenvalues    EBANDS =      -392.68865024
  atomic energy  EATOM  =      1848.25967021
  ---------------------------------------------------
  free energy    TOTEN  =       -15.61357138 eV

  energy without entropy =      -15.61357138  energy(sigma->0) =      -15.61357138


--------------------------------------------------------------------------------------------------------




----------------------------------------- Iteration    1(  15)  ---------------------------------------


    POTLOK:  cpu time   10.81: real time   10.92
    SETDIJ:  cpu time    0.02: real time    0.02
     EDDAV:  cpu time    6.59: real time    6.61
       DOS:  cpu time    0.01: real time    0.01
    CHARGE:  cpu time    0.46: real time    0.46
    MIXING:  cpu time    0.02: real time    0.02
    --------------------------------------------
      LOOP:  cpu time   17.92: real time   18.30

 eigenvalue-minimisations  :  1068
 total energy-change (2. order) :-0.7854022E-02  (-0.1929120E-03)
 number of electron      23.9999999 magnetization       0.3695210
 augmentation part        2.9379130 magnetization       0.3693684

 Broyden mixing:
  rms(total) = 0.39545E-01    rms(broyden)= 0.39545E-01
  rms(prec ) = 0.39594E-01
  weight for this iteration     100.00

 eigenvalues of (default mixing * dielectric matrix)
  average eigenvalue GAMMA=   2.3806
 10.9306  3.9170  2.5430  1.5824  1.2178  0.9811  0.7636  0.6550  0.6075  0.6075

 Free energy of the ion-electron system (eV)
  ---------------------------------------------------
  alpha Z        PSCENC =        12.99286541
  Ewald energy   TEWEN  =     11817.94590715
  -1/2 Hartree   DENC   =    -13381.21454807
  -exchange  EXHF       =         0.00000000
  -V(xc)+E(xc)   XCENC  =        61.38338416
  PAW double counting   =      2813.59480209    -2795.22464721
  entropy T*S    EENTRO =         0.00000000
  eigenvalues    EBANDS =      -393.35885914
  atomic energy  EATOM  =      1848.25967021
  ---------------------------------------------------
  free energy    TOTEN  =       -15.62142540 eV

  energy without entropy =      -15.62142540  energy(sigma->0) =      -15.62142540


--------------------------------------------------------------------------------------------------------




----------------------------------------- Iteration    1(  16)  ---------------------------------------


    POTLOK:  cpu time   10.46: real time   10.57
    SETDIJ:  cpu time    0.02: real time    0.03
     EDDAV:  cpu time    6.02: real time    6.06
       DOS:  cpu time    0.01: real time    0.01
    CHARGE:  cpu time    0.42: real time    0.42
    MIXING:  cpu time    0.03: real time    0.03
    --------------------------------------------
      LOOP:  cpu time   16.96: real time   18.13

 eigenvalue-minimisations  :  1040
 total energy-change (2. order) :-0.6835788E-02  (-0.1025545E-03)
 number of electron      23.9999999 magnetization       0.2295472
 augmentation part        2.9388273 magnetization       0.2297877

 Broyden mixing:
  rms(total) = 0.30690E-01    rms(broyden)= 0.30690E-01
  rms(prec ) = 0.30757E-01
  weight for this iteration     100.00

 eigenvalues of (default mixing * dielectric matrix)
  average eigenvalue GAMMA=   2.6390
 12.9895  5.5790  2.4948  2.0000  1.4343  1.0562  0.8731  0.7380  0.5979  0.6331
  0.6331

 Free energy of the ion-electron system (eV)
  ---------------------------------------------------
  alpha Z        PSCENC =        12.99286541
  Ewald energy   TEWEN  =     11817.94590715
  -1/2 Hartree   DENC   =    -13380.83778200
  -exchange  EXHF       =         0.00000000
  -V(xc)+E(xc)   XCENC  =        61.37075721
  PAW double counting   =      2806.59682409    -2788.21904454
  entropy T*S    EENTRO =         0.00000000
  eigenvalues    EBANDS =      -393.73745872
  atomic energy  EATOM  =      1848.25967021
  ---------------------------------------------------
  free energy    TOTEN  =       -15.62826119 eV

  energy without entropy =      -15.62826119  energy(sigma->0) =      -15.62826119


--------------------------------------------------------------------------------------------------------




----------------------------------------- Iteration    1(  17)  ---------------------------------------


    POTLOK:  cpu time   10.43: real time   10.48
    SETDIJ:  cpu time    0.03: real time    0.03
     EDDAV:  cpu time    6.90: real time    6.94
       DOS:  cpu time    0.01: real time    0.01
    CHARGE:  cpu time    0.44: real time    0.44
    MIXING:  cpu time    0.03: real time    0.03
    --------------------------------------------
      LOOP:  cpu time   17.84: real time   18.13

 eigenvalue-minimisations  :  1208
 total energy-change (2. order) :-0.2514032E-02  (-0.9200712E-04)
 number of electron      23.9999999 magnetization       0.1360137
 augmentation part        2.9348296 magnetization       0.1359014

 Broyden mixing:
  rms(total) = 0.19851E-01    rms(broyden)= 0.19851E-01
  rms(prec ) = 0.19862E-01
  weight for this iteration     100.00

 eigenvalues of (default mixing * dielectric matrix)
  average eigenvalue GAMMA=   2.7162
 14.1342  6.2888  2.6708  2.5009  1.4629  1.1763  0.9894  0.7933  0.7082  0.5981
  0.6356  0.6356

 Free energy of the ion-electron system (eV)
  ---------------------------------------------------
  alpha Z        PSCENC =        12.99286541
  Ewald energy   TEWEN  =     11817.94590715
  -1/2 Hartree   DENC   =    -13380.69680215
  -exchange  EXHF       =         0.00000000
  -V(xc)+E(xc)   XCENC  =        61.37262667
  PAW double counting   =      2805.24182174    -2786.83407875
  entropy T*S    EENTRO =         0.00000000
  eigenvalues    EBANDS =      -393.91278549
  atomic energy  EATOM  =      1848.25967021
  ---------------------------------------------------
  free energy    TOTEN  =       -15.63077522 eV

  energy without entropy =      -15.63077522  energy(sigma->0) =      -15.63077522


--------------------------------------------------------------------------------------------------------




----------------------------------------- Iteration    1(  18)  ---------------------------------------


    POTLOK:  cpu time   10.38: real time   10.43
    SETDIJ:  cpu time    0.03: real time    0.03
     EDDAV:  cpu time    6.45: real time    6.49
       DOS:  cpu time    0.01: real time    0.01
    CHARGE:  cpu time    0.45: real time    0.45
    MIXING:  cpu time    0.02: real time    0.02
    --------------------------------------------
      LOOP:  cpu time   17.34: real time   17.55

 eigenvalue-minimisations  :  1156
 total energy-change (2. order) :-0.9028021E-03  (-0.3206953E-04)
 number of electron      23.9999999 magnetization       0.0594525
 augmentation part        2.9341453 magnetization       0.0591978

 Broyden mixing:
  rms(total) = 0.16162E-01    rms(broyden)= 0.16162E-01
  rms(prec ) = 0.16187E-01
  weight for this iteration     100.00

 eigenvalues of (default mixing * dielectric matrix)
  average eigenvalue GAMMA=   2.7976
 15.1603  6.9120  3.3288  2.5293  1.8206  1.3422  1.0934  0.8940  0.7529  0.6021
  0.6301  0.6527  0.6497

 Free energy of the ion-electron system (eV)
  ---------------------------------------------------
  alpha Z        PSCENC =        12.99286541
  Ewald energy   TEWEN  =     11817.94590715
  -1/2 Hartree   DENC   =    -13380.65938527
  -exchange  EXHF       =         0.00000000
  -V(xc)+E(xc)   XCENC  =        61.37750772
  PAW double counting   =      2804.44768849    -2786.02034026
  entropy T*S    EENTRO =         0.00000000
  eigenvalues    EBANDS =      -393.97559147
  atomic energy  EATOM  =      1848.25967021
  ---------------------------------------------------
  free energy    TOTEN  =       -15.63167803 eV

  energy without entropy =      -15.63167803  energy(sigma->0) =      -15.63167803


--------------------------------------------------------------------------------------------------------




----------------------------------------- Iteration    1(  19)  ---------------------------------------


    POTLOK:  cpu time   10.43: real time   10.48
    SETDIJ:  cpu time    0.03: real time    0.03
     EDDAV:  cpu time    7.28: real time    7.36
       DOS:  cpu time    0.01: real time    0.01
    CHARGE:  cpu time    0.40: real time    0.42
    MIXING:  cpu time    0.02: real time    0.02
    --------------------------------------------
      LOOP:  cpu time   18.18: real time   18.44

 eigenvalue-minimisations  :  1216
 total energy-change (2. order) : 0.2850380E-03  (-0.2538962E-04)
 number of electron      23.9999999 magnetization       0.0103397
 augmentation part        2.9361459 magnetization       0.0103574

 Broyden mixing:
  rms(total) = 0.80762E-02    rms(broyden)= 0.80762E-02
  rms(prec ) = 0.80983E-02
  weight for this iteration     100.00

 eigenvalues of (default mixing * dielectric matrix)
  average eigenvalue GAMMA=   3.0997
 17.3823  8.5626  4.8135  2.4680  2.4680  1.4888  1.0667  1.0577  0.8279  0.7412
  0.6034  0.6635  0.6259  0.6259

 Free energy of the ion-electron system (eV)
  ---------------------------------------------------
  alpha Z        PSCENC =        12.99286541
  Ewald energy   TEWEN  =     11817.94590715
  -1/2 Hartree   DENC   =    -13380.46903617
  -exchange  EXHF       =         0.00000000
  -V(xc)+E(xc)   XCENC  =        61.37685672
  PAW double counting   =      2800.14394916    -2781.72052519
  entropy T*S    EENTRO =         0.00000000
  eigenvalues    EBANDS =      -394.16108028
  atomic energy  EATOM  =      1848.25967021
  ---------------------------------------------------
  free energy    TOTEN  =       -15.63139299 eV

  energy without entropy =      -15.63139299  energy(sigma->0) =      -15.63139299


--------------------------------------------------------------------------------------------------------




----------------------------------------- Iteration    1(  20)  ---------------------------------------


    POTLOK:  cpu time   10.31: real time   10.44
    SETDIJ:  cpu time    0.03: real time    0.03
     EDDAV:  cpu time    7.31: real time    7.43
       DOS:  cpu time    0.01: real time    0.01
    CHARGE:  cpu time    0.45: real time    0.45
    MIXING:  cpu time    0.03: real time    0.03
    --------------------------------------------
      LOOP:  cpu time   18.14: real time   18.54

 eigenvalue-minimisations  :  1224
 total energy-change (2. order) : 0.4942600E-03  (-0.1183019E-04)
 number of electron      23.9999999 magnetization       0.0024073
 augmentation part        2.9355555 magnetization       0.0024456

 Broyden mixing:
  rms(total) = 0.30806E-02    rms(broyden)= 0.30806E-02
  rms(prec ) = 0.30970E-02
  weight for this iteration     100.00

 eigenvalues of (default mixing * dielectric matrix)
  average eigenvalue GAMMA=   3.1752
 18.9535  9.5019  5.2073  2.5221  2.5221  1.5842  1.3084  1.0580  0.9392  0.8094
  0.7347  0.6466  0.6263  0.6073  0.6073

 Free energy of the ion-electron system (eV)
  ---------------------------------------------------
  alpha Z        PSCENC =        12.99286541
  Ewald energy   TEWEN  =     11817.94590715
  -1/2 Hartree   DENC   =    -13380.28632676
  -exchange  EXHF       =         0.00000000
  -V(xc)+E(xc)   XCENC  =        61.37590311
  PAW double counting   =      2801.34713256    -2782.93392463
  entropy T*S    EENTRO =         0.00000000
  eigenvalues    EBANDS =      -394.33212577
  atomic energy  EATOM  =      1848.25967021
  ---------------------------------------------------
  free energy    TOTEN  =       -15.63089873 eV

  energy without entropy =      -15.63089873  energy(sigma->0) =      -15.63089873


--------------------------------------------------------------------------------------------------------




----------------------------------------- Iteration    1(  21)  ---------------------------------------


    POTLOK:  cpu time   10.31: real time   10.36
    SETDIJ:  cpu time    0.04: real time    0.03
     EDDAV:  cpu time    6.69: real time    6.74
       DOS:  cpu time    0.01: real time    0.01
    CHARGE:  cpu time    0.44: real time    0.44
    MIXING:  cpu time    0.03: real time    0.03
    --------------------------------------------
      LOOP:  cpu time   17.52: real time   18.49

 eigenvalue-minimisations  :  1032
 total energy-change (2. order) : 0.1821539E-03  (-0.3915308E-05)
 number of electron      23.9999999 magnetization       0.0004727
 augmentation part        2.9355643 magnetization       0.0004813

 Broyden mixing:
  rms(total) = 0.14940E-02    rms(broyden)= 0.14940E-02
  rms(prec ) = 0.15037E-02
  weight for this iteration     100.00

 eigenvalues of (default mixing * dielectric matrix)
  average eigenvalue GAMMA=   3.1229
 19.6201  9.8501  5.3465  2.5445  2.5445  1.7374  1.4597  1.0679  0.9007  0.9007
  0.8202  0.6995  0.6449  0.6136  0.6136  0.6024

 Free energy of the ion-electron system (eV)
  ---------------------------------------------------
  alpha Z        PSCENC =        12.99286541
  Ewald energy   TEWEN  =     11817.94590715
  -1/2 Hartree   DENC   =    -13380.22278959
  -exchange  EXHF       =         0.00000000
  -V(xc)+E(xc)   XCENC  =        61.37549404
  PAW double counting   =      2803.12008357    -2784.70818742
  entropy T*S    EENTRO =         0.00000000
  eigenvalues    EBANDS =      -394.39375993
  atomic energy  EATOM  =      1848.25967021
  ---------------------------------------------------
  free energy    TOTEN  =       -15.63071657 eV

  energy without entropy =      -15.63071657  energy(sigma->0) =      -15.63071657


--------------------------------------------------------------------------------------------------------




----------------------------------------- Iteration    1(  22)  ---------------------------------------


    POTLOK:  cpu time   10.33: real time   10.46
    SETDIJ:  cpu time    0.02: real time    0.03
     EDDAV:  cpu time    6.62: real time    6.71
       DOS:  cpu time    0.02: real time    0.01
    CHARGE:  cpu time    0.43: real time    0.43
    MIXING:  cpu time    0.02: real time    0.02
    --------------------------------------------
      LOOP:  cpu time   17.45: real time   17.89

 eigenvalue-minimisations  :  1052
 total energy-change (2. order) : 0.6620169E-04  (-0.1233312E-05)
 number of electron      23.9999999 magnetization       0.0001206
 augmentation part        2.9355296 magnetization       0.0001290

 Broyden mixing:
  rms(total) = 0.73625E-03    rms(broyden)= 0.73625E-03
  rms(prec ) = 0.74484E-03
  weight for this iteration     100.00

 eigenvalues of (default mixing * dielectric matrix)
  average eigenvalue GAMMA=   3.0335
 19.8299  9.9592  5.4026  2.7803  2.3684  1.9649  1.4994  1.0827  1.0000  1.0000
  0.8125  0.7477  0.6618  0.6350  0.6350  0.5978  0.5928

 Free energy of the ion-electron system (eV)
  ---------------------------------------------------
  alpha Z        PSCENC =        12.99286541
  Ewald energy   TEWEN  =     11817.94590715
  -1/2 Hartree   DENC   =    -13380.21867483
  -exchange  EXHF       =         0.00000000
  -V(xc)+E(xc)   XCENC  =        61.37498967
  PAW double counting   =      2803.20411473    -2784.79220208
  entropy T*S    EENTRO =         0.00000000
  eigenvalues    EBANDS =      -394.39732064
  atomic energy  EATOM  =      1848.25967021
  ---------------------------------------------------
  free energy    TOTEN  =       -15.63065037 eV

  energy without entropy =      -15.63065037  energy(sigma->0) =      -15.63065037


--------------------------------------------------------------------------------------------------------




----------------------------------------- Iteration    1(  23)  ---------------------------------------


    POTLOK:  cpu time   10.04: real time   10.16
    SETDIJ:  cpu time    0.02: real time    0.03
     EDDAV:  cpu time    6.92: real time    7.01
       DOS:  cpu time    0.01: real time    0.01
    CHARGE:  cpu time    0.48: real time    0.49
    MIXING:  cpu time    0.03: real time    0.03
    --------------------------------------------
      LOOP:  cpu time   17.51: real time   17.94

 eigenvalue-minimisations  :  1136
 total energy-change (2. order) :-0.4765189E-04  (-0.2259713E-06)
 number of electron      23.9999999 magnetization       0.0000307
 augmentation part        2.9354806 magnetization       0.0000260

 Broyden mixing:
  rms(total) = 0.29579E-03    rms(broyden)= 0.29579E-03
  rms(prec ) = 0.30762E-03
  weight for this iteration     100.00

 eigenvalues of (default mixing * dielectric matrix)
  average eigenvalue GAMMA=   2.9499
 19.8732  9.9795  5.4240  2.8498  2.3366  2.0565  1.4958  1.4958  1.0276  1.0276
  0.8132  0.8132  0.7582  0.6493  0.6493  0.6056  0.6056  0.6364

 Free energy of the ion-electron system (eV)
  ---------------------------------------------------
  alpha Z        PSCENC =        12.99286541
  Ewald energy   TEWEN  =     11817.94590715
  -1/2 Hartree   DENC   =    -13380.22335684
  -exchange  EXHF       =         0.00000000
  -V(xc)+E(xc)   XCENC  =        61.37479139
  PAW double counting   =      2803.02707635    -2784.61491276
  entropy T*S    EENTRO =         0.00000000
  eigenvalues    EBANDS =      -394.39273893
  atomic energy  EATOM  =      1848.25967021
  ---------------------------------------------------
  free energy    TOTEN  =       -15.63069802 eV

  energy without entropy =      -15.63069802  energy(sigma->0) =      -15.63069802


--------------------------------------------------------------------------------------------------------




----------------------------------------- Iteration    1(  24)  ---------------------------------------


    POTLOK:  cpu time   10.62: real time   10.66
    SETDIJ:  cpu time    0.02: real time    0.02
     EDDAV:  cpu time    6.16: real time    6.18
       DOS:  cpu time    0.01: real time    0.01
    CHARGE:  cpu time    0.54: real time    0.54
    MIXING:  cpu time    0.03: real time    0.03
    --------------------------------------------
      LOOP:  cpu time   17.37: real time   17.79

 eigenvalue-minimisations  :  1144
 total energy-change (2. order) :-0.6469914E-05  (-0.2359868E-06)
 number of electron      23.9999999 magnetization       0.0000123
 augmentation part        2.9355053 magnetization       0.0000122

 Broyden mixing:
  rms(total) = 0.12390E-03    rms(broyden)= 0.12390E-03
  rms(prec ) = 0.13823E-03
  weight for this iteration     100.00

 eigenvalues of (default mixing * dielectric matrix)
  average eigenvalue GAMMA=   2.8768
 19.8818  9.9867  5.4321  2.8653  2.3602  2.3602  1.7749  1.5340  1.0473  1.0473
  0.8934  0.8601  0.7893  0.7213  0.6041  0.6331  0.6331  0.6145  0.6199

 Free energy of the ion-electron system (eV)
  ---------------------------------------------------
  alpha Z        PSCENC =        12.99286541
  Ewald energy   TEWEN  =     11817.94590715
  -1/2 Hartree   DENC   =    -13380.23199395
  -exchange  EXHF       =         0.00000000
  -V(xc)+E(xc)   XCENC  =        61.37481450
  PAW double counting   =      2803.14612798    -2784.73411060
  entropy T*S    EENTRO =         0.00000000
  eigenvalues    EBANDS =      -394.38398519
  atomic energy  EATOM  =      1848.25967021
  ---------------------------------------------------
  free energy    TOTEN  =       -15.63070449 eV

  energy without entropy =      -15.63070449  energy(sigma->0) =      -15.63070449


--------------------------------------------------------------------------------------------------------




----------------------------------------- Iteration    1(  25)  ---------------------------------------


    POTLOK:  cpu time   10.71: real time   10.75
    SETDIJ:  cpu time    0.02: real time    0.02
     EDDAV:  cpu time    6.83: real time    6.85
       DOS:  cpu time    0.01: real time    0.01
    CHARGE:  cpu time    0.44: real time    0.44
    MIXING:  cpu time    0.03: real time    0.03
    --------------------------------------------
      LOOP:  cpu time   18.04: real time   18.30

 eigenvalue-minimisations  :  1172
 total energy-change (2. order) :-0.2091245E-04  (-0.1781200E-06)
 number of electron      23.9999999 magnetization       0.0000067
 augmentation part        2.9355158 magnetization       0.0000066

 Broyden mixing:
  rms(total) = 0.57560E-04    rms(broyden)= 0.57560E-04
  rms(prec ) = 0.74687E-04
  weight for this iteration     100.00

 eigenvalues of (default mixing * dielectric matrix)
  average eigenvalue GAMMA=   2.8084
 19.8838  9.9872  5.4344  2.9336  2.5819  2.3658  1.8106  1.5540  1.2663  1.0263
  0.9483  0.9483  0.8478  0.7573  0.7163  0.6037  0.6118  0.6118  0.6392  0.6392

 Free energy of the ion-electron system (eV)
  ---------------------------------------------------
  alpha Z        PSCENC =        12.99286541
  Ewald energy   TEWEN  =     11817.94590715
  -1/2 Hartree   DENC   =    -13380.24174851
  -exchange  EXHF       =         0.00000000
  -V(xc)+E(xc)   XCENC  =        61.37486340
  PAW double counting   =      2803.22824627    -2784.81625407
  entropy T*S    EENTRO =         0.00000000
  eigenvalues    EBANDS =      -394.37427526
  atomic energy  EATOM  =      1848.25967021
  ---------------------------------------------------
  free energy    TOTEN  =       -15.63072541 eV

  energy without entropy =      -15.63072541  energy(sigma->0) =      -15.63072541


--------------------------------------------------------------------------------------------------------




----------------------------------------- Iteration    1(  26)  ---------------------------------------


    POTLOK:  cpu time   10.82: real time   10.85
    SETDIJ:  cpu time    0.03: real time    0.03
     EDDAV:  cpu time    6.47: real time    6.49
       DOS:  cpu time    0.01: real time    0.01
    CHARGE:  cpu time    0.49: real time    0.49
    MIXING:  cpu time    0.03: real time    0.03
    --------------------------------------------
      LOOP:  cpu time   17.84: real time   18.81

 eigenvalue-minimisations  :  1044
 total energy-change (2. order) :-0.1612688E-04  (-0.1312594E-06)
 number of electron      23.9999999 magnetization       0.0000036
 augmentation part        2.9355058 magnetization       0.0000043

 Broyden mixing:
  rms(total) = 0.36632E-04    rms(broyden)= 0.36632E-04
  rms(prec ) = 0.51292E-04
  weight for this iteration     100.00

 eigenvalues of (default mixing * dielectric matrix)
  average eigenvalue GAMMA=   2.7466
 19.8843  9.9872  5.4351  2.9677  2.6913  2.3166  1.8334  1.7306  1.5323  1.0840
  0.9805  0.9805  0.9025  0.7984  0.7409  0.6979  0.6511  0.6061  0.6061  0.6304
  0.6214

 Free energy of the ion-electron system (eV)
  ---------------------------------------------------
  alpha Z        PSCENC =        12.99286541
  Ewald energy   TEWEN  =     11817.94590715
  -1/2 Hartree   DENC   =    -13380.25220407
  -exchange  EXHF       =         0.00000000
  -V(xc)+E(xc)   XCENC  =        61.37489734
  PAW double counting   =      2803.26894468    -2784.85695136
  entropy T*S    EENTRO =         0.00000000
  eigenvalues    EBANDS =      -394.36387090
  atomic energy  EATOM  =      1848.25967021
  ---------------------------------------------------
  free energy    TOTEN  =       -15.63074153 eV

  energy without entropy =      -15.63074153  energy(sigma->0) =      -15.63074153


--------------------------------------------------------------------------------------------------------




----------------------------------------- Iteration    1(  27)  ---------------------------------------


    POTLOK:  cpu time   12.33: real time   12.51
    SETDIJ:  cpu time    0.06: real time    0.05
     EDDAV:  cpu time    7.66: real time    7.68
       DOS:  cpu time    0.01: real time    0.01
    CHARGE:  cpu time    0.55: real time    0.55
    MIXING:  cpu time    0.02: real time    0.03
    --------------------------------------------
      LOOP:  cpu time   20.63: real time   21.01

 eigenvalue-minimisations  :  1116
[...]
     13      -1.8551      0.00000
     14      -1.5191      0.00000
     15      -1.5110      0.00000
     16      -0.4485      0.00000
     17       0.7878      0.00000
     18       1.1815      0.00000
     19       1.7642      0.00000
     20       2.0456      0.00000

 k-point   7 :       0.2222    0.1111    0.0000
  band No.  band energies     occupation 
      1     -38.9628      1.00000
      2     -38.8850      1.00000
      3     -38.8074      1.00000
      4     -16.8286      1.00000
      5     -16.1760      1.00000
      6      -8.8628      1.00000
      7      -7.7372      1.00000
      8      -7.7235      1.00000
      9      -7.0068      1.00000
     10      -5.8301      1.00000
     11      -5.1570      1.00000
     12      -4.7992      1.00000
     13      -2.0413      0.00000
     14      -1.5950      0.00000
     15      -1.1811      0.00000
     16       0.0886      0.00000
     17       1.7376      0.00000
     18       2.1314      0.00000
     19       2.7147      0.00000
     20       2.9795      0.00000

 k-point   8 :       0.3333    0.1111    0.0000
  band No.  band energies     occupation 
      1     -39.0544      1.00000
      2     -38.8647      1.00000
      3     -38.8391      1.00000
      4     -16.2544      1.00000
      5     -15.9484      1.00000
      6      -9.2541      1.00000
      7      -8.5061      1.00000
      8      -7.7660      1.00000
      9      -7.1340      1.00000
     10      -5.7811      1.00000
     11      -5.6131      1.00000
     12      -4.6487      1.00000
     13      -1.8326      0.00000
     14      -1.4604      0.00000
     15      -0.5762      0.00000
     16       0.2630      0.00000
     17       3.0811      0.00000
     18       3.2049      0.00000
     19       3.5549      0.00000
     20       4.0624      0.00000

 k-point   9 :       0.4444    0.1111    0.0000
  band No.  band energies     occupation 
      1     -39.0901      1.00000
      2     -38.8566      1.00000
      3     -38.8516      1.00000
      4     -15.9977      1.00000
      5     -15.8494      1.00000
      6      -9.4601      1.00000
      7      -8.8163      1.00000
      8      -7.9065      1.00000
      9      -7.1233      1.00000
     10      -5.8359      1.00000
     11      -5.6946      1.00000
     12      -4.3972      1.00000
     13      -1.8102      0.00000
     14      -1.1978      0.00000
     15      -0.1918      0.00000
     16       0.1328      0.00000
     17       2.3984      0.00000
     18       4.5520      0.00000
     19       4.7673      0.00000
     20       4.8387      0.00000

 k-point  10 :       0.2222    0.2222    0.0000
  band No.  band energies     occupation 
      1     -39.0216      1.00000
      2     -38.8662      1.00000
      3     -38.8638      1.00000
      4     -16.3071      1.00000
      5     -15.9594      1.00000
      6      -8.9887      1.00000
      7      -8.4602      1.00000
      8      -7.5479      1.00000
      9      -7.2559      1.00000
     10      -6.4416      1.00000
     11      -5.3816      1.00000
     12      -4.6921      1.00000
     13      -1.8803      0.00000
     14      -1.4520      0.00000
     15      -0.9984      0.00000
     16       0.4371      0.00000
     17       2.9095      0.00000
     18       3.2898      0.00000
     19       3.7066      0.00000
     20       3.9749      0.00000

 k-point  11 :       0.3333    0.2222    0.0000
  band No.  band energies     occupation 
      1     -39.0497      1.00000
      2     -38.9105      1.00000
      3     -38.8539      1.00000
      4     -15.9252      1.00000
      5     -15.7973      1.00000
      6      -9.0473      1.00000
      7      -8.9973      1.00000
      8      -7.7059      1.00000
      9      -7.0455      1.00000
     10      -6.8479      1.00000
     11      -5.8458      1.00000
     12      -4.3195      1.00000
     13      -2.0050      0.00000
     14      -0.9377      0.00000
     15      -0.7850      0.00000
     16       0.5740      0.00000
     17       3.0333      0.00000
     18       4.4660      0.00000
     19       4.5692      0.00000
     20       4.8814      0.00000

 k-point  12 :       0.3333    0.3333    0.0000
  band No.  band energies     occupation 
      1     -39.0133      1.00000
      2     -38.9734      1.00000
      3     -38.8496      1.00000
      4     -15.7914      1.00000
      5     -15.7298      1.00000
      6      -9.2960      1.00000
      7      -8.4860      1.00000
      8      -7.9406      1.00000
      9      -7.4597      1.00000
     10      -6.7996      1.00000
     11      -6.1341      1.00000
     12      -4.0396      1.00000
     13      -2.3569      0.00000
     14      -0.9346      0.00000
     15      -0.5311      0.00000
     16       0.8066      0.00000
     17       3.3203      0.00000
     18       3.6408      0.00000
     19       5.5402      0.00000
     20       5.8300      0.00000


--------------------------------------------------------------------------------------------------------


 soft charge-density along one line, spin component           1
         0         1         2         3         4         5         6         7         8         9
 total charge-density along one line
 
 soft charge-density along one line, spin component           2
         0         1         2         3         4         5         6         7         8         9
 total charge-density along one line
 
 pseudopotential strength for first ion, spin component:           1
-29.169   0.000   0.000  10.362   0.000   0.000   0.000   0.000
  0.000 -29.147   0.000   0.000  10.352   0.000   0.000   0.000
  0.000   0.000 -29.169   0.000   0.000  10.362   0.011   0.000
 10.362   0.000   0.000   3.390   0.000   0.000   0.000   0.000
  0.000  10.352   0.000   0.000   3.391   0.000   0.000   0.000
  0.000   0.000  10.362   0.000   0.000   3.390  -0.006   0.000
  0.000   0.000   0.011   0.000   0.000  -0.006  -4.480   0.000
  0.000   0.000   0.000   0.000   0.000   0.000   0.000  -4.476
  0.000   0.000   0.000   0.000   0.000   0.000   0.000   0.000
  0.000   0.000   0.000   0.000   0.000   0.000   0.000   0.000
  0.011   0.000   0.000  -0.006   0.000   0.000   0.000   0.000
  0.000   0.000   0.011   0.000   0.000  -0.006  -4.630   0.000
  0.000   0.000   0.000   0.000   0.000   0.000   0.000  -4.625
  0.000   0.000   0.000   0.000   0.000   0.000   0.000   0.000
  0.000   0.000   0.000   0.000   0.000   0.000   0.000   0.000
  0.011   0.000   0.000  -0.006   0.000   0.000   0.000   0.000
  0.000   0.000   0.000   0.000   0.000   0.000   0.000   0.000
  0.000   0.000   0.000   0.000   0.000   0.000   0.000   0.000
 pseudopotential strength for first ion, spin component:           2
-29.169   0.000   0.000  10.362   0.000   0.000   0.000   0.000
  0.000 -29.147   0.000   0.000  10.352   0.000   0.000   0.000
  0.000   0.000 -29.169   0.000   0.000  10.362   0.011   0.000
 10.362   0.000   0.000   3.390   0.000   0.000   0.000   0.000
  0.000  10.352   0.000   0.000   3.391   0.000   0.000   0.000
  0.000   0.000  10.362   0.000   0.000   3.390  -0.006   0.000
  0.000   0.000   0.011   0.000   0.000  -0.006  -4.480   0.000
  0.000   0.000   0.000   0.000   0.000   0.000   0.000  -4.476
  0.000   0.000   0.000   0.000   0.000   0.000   0.000   0.000
  0.000   0.000   0.000   0.000   0.000   0.000   0.000   0.000
  0.011   0.000   0.000  -0.006   0.000   0.000   0.000   0.000
  0.000   0.000   0.011   0.000   0.000  -0.006  -4.630   0.000
  0.000   0.000   0.000   0.000   0.000   0.000   0.000  -4.625
  0.000   0.000   0.000   0.000   0.000   0.000   0.000   0.000
  0.000   0.000   0.000   0.000   0.000   0.000   0.000   0.000
  0.011   0.000   0.000  -0.006   0.000   0.000   0.000   0.000
  0.000   0.000   0.000   0.000   0.000   0.000   0.000   0.000
  0.000   0.000   0.000   0.000   0.000   0.000   0.000   0.000
 total augmentation occupancy for first ion, spin component:           1
  1.994   0.000   0.000  -0.016   0.000   0.000   0.000   0.000   0.000   0.000   0.040   0.000   0.000   0.000   0.000  -0.037
  0.000   1.993   0.000   0.000  -0.018   0.000   0.000   0.000   0.000   0.000   0.000   0.000   0.000   0.000   0.000   0.000
  0.000   0.000   1.994   0.000   0.000  -0.016   0.040   0.000   0.000   0.000   0.000  -0.037   0.000   0.000   0.000   0.000
 -0.016   0.000   0.000   0.273   0.000   0.000   0.000   0.000   0.000   0.000   0.325   0.000   0.000   0.000   0.000  -0.380
  0.000  -0.018   0.000   0.000   0.332   0.000   0.000   0.000   0.000   0.000   0.000   0.000   0.000   0.000   0.000   0.000
  0.000   0.000  -0.016   0.000   0.000   0.273   0.325   0.000   0.000   0.000   0.000  -0.380   0.000   0.000   0.000   0.000
  0.000   0.000   0.040   0.000   0.000   0.325   2.444   0.000   0.000   0.000   0.000  -2.915   0.000   0.000   0.000   0.000
  0.000   0.000   0.000   0.000   0.000   0.000   0.000   3.867   0.000   0.000   0.000   0.000  -4.983   0.000   0.000   0.000
  0.000   0.000   0.000   0.000   0.000   0.000   0.000   0.000   1.682   0.000   0.000   0.000   0.000  -1.822   0.000   0.000
  0.000   0.000   0.000   0.000   0.000   0.000   0.000   0.000   0.000   3.867   0.000   0.000   0.000   0.000  -4.983   0.000
  0.040   0.000   0.000   0.325   0.000   0.000   0.000   0.000   0.000   0.000   2.444   0.000   0.000   0.000   0.000  -2.915
  0.000   0.000  -0.037   0.000   0.000  -0.380  -2.915   0.000   0.000   0.000   0.000   4.257   0.000   0.000   0.000   0.000
  0.000   0.000   0.000   0.000   0.000   0.000   0.000  -4.983   0.000   0.000   0.000   0.000   6.864   0.000   0.000   0.000
  0.000   0.000   0.000   0.000   0.000   0.000   0.000   0.000  -1.822   0.000   0.000   0.000   0.000   2.917   0.000   0.000
  0.000   0.000   0.000   0.000   0.000   0.000   0.000   0.000   0.000  -4.983   0.000   0.000   0.000   0.000   6.864   0.000
 -0.037   0.000   0.000  -0.380   0.000   0.000   0.000   0.000   0.000   0.000  -2.915   0.000   0.000   0.000   0.000   4.257
  0.000   0.000   0.000   0.000   0.000   0.000   0.000   0.000  -0.063   0.000   0.000   0.000   0.000   0.162   0.000   0.000
  0.000   0.000   0.000   0.000   0.000   0.000   0.000   0.000  -0.008   0.000   0.000   0.000   0.000   0.008   0.000   0.000
 total augmentation occupancy for first ion, spin component:           2
  0.000   0.000   0.000   0.000   0.000   0.000   0.000   0.000   0.000   0.000   0.000   0.000   0.000   0.000   0.000   0.000
  0.000   0.000   0.000   0.000   0.000   0.000   0.000   0.000   0.000   0.000   0.000   0.000   0.000   0.000   0.000   0.000
  0.000   0.000   0.000   0.000   0.000   0.000   0.000   0.000   0.000   0.000   0.000   0.000   0.000   0.000   0.000   0.000
  0.000   0.000   0.000   0.000   0.000   0.000   0.000   0.000   0.000   0.000   0.000   0.000   0.000   0.000   0.000   0.000
  0.000   0.000   0.000   0.000   0.000   0.000   0.000   0.000   0.000   0.000   0.000   0.000   0.000   0.000   0.000   0.000
  0.000   0.000   0.000   0.000   0.000   0.000   0.000   0.000   0.000   0.000   0.000   0.000   0.000   0.000   0.000   0.000
  0.000   0.000   0.000   0.000   0.000   0.000   0.000   0.000   0.000   0.000   0.000   0.000   0.000   0.000   0.000   0.000
  0.000   0.000   0.000   0.000   0.000   0.000   0.000   0.000   0.000   0.000   0.000   0.000   0.000   0.000   0.000   0.000
  0.000   0.000   0.000   0.000   0.000   0.000   0.000   0.000   0.000   0.000   0.000   0.000   0.000   0.000   0.000   0.000
  0.000   0.000   0.000   0.000   0.000   0.000   0.000   0.000   0.000   0.000   0.000   0.000   0.000   0.000   0.000   0.000
  0.000   0.000   0.000   0.000   0.000   0.000   0.000   0.000   0.000   0.000   0.000   0.000   0.000   0.000   0.000   0.000
  0.000   0.000   0.000   0.000   0.000   0.000   0.000   0.000   0.000   0.000   0.000   0.000   0.000   0.000   0.000   0.000
  0.000   0.000   0.000   0.000   0.000   0.000   0.000   0.000   0.000   0.000   0.000   0.000   0.000   0.000   0.000   0.000
  0.000   0.000   0.000   0.000   0.000   0.000   0.000   0.000   0.000   0.000   0.000   0.000   0.000   0.000   0.000   0.000
  0.000   0.000   0.000   0.000   0.000   0.000   0.000   0.000   0.000   0.000   0.000   0.000   0.000   0.000   0.000   0.000
  0.000   0.000   0.000   0.000   0.000   0.000   0.000   0.000   0.000   0.000   0.000   0.000   0.000   0.000   0.000   0.000
  0.000   0.000   0.000   0.000   0.000   0.000   0.000   0.000   0.000   0.000   0.000   0.000   0.000   0.000   0.000   0.000
  0.000   0.000   0.000   0.000   0.000   0.000   0.000   0.000   0.000   0.000   0.000   0.000   0.000   0.000   0.000   0.000


------------------------ aborting loop because EDIFF is reached ----------------------------------------


 


 total charge     
 
# of ion     s       p       d       tot
----------------------------------------
  1        0.389   6.546   4.294  11.229
  2        1.379   2.361   0.000   3.740
  3        1.379   2.361   0.000   3.740
------------------------------------------------
tot        3.146  11.267   4.294  18.708
 


 magnetization (x)
 
# of ion     s       p       d       tot
----------------------------------------
  1        0.000   0.000   0.000   0.000
  2        0.000   0.000   0.000   0.000
  3        0.000   0.000   0.000   0.000
------------------------------------------------
tot        0.000   0.000   0.000   0.000
 
    CHARGE:  cpu time    0.43: real time    0.43
    FORLOC:  cpu time    0.01: real time    0.01
    FORNL :  cpu time    0.32: real time    0.32
    STRESS:  cpu time    0.90: real time    0.90
    FORCOR:  cpu time   10.48: real time   10.56
    FORHAR:  cpu time    0.12: real time    0.12
    MIXING:  cpu time    0.04: real time    0.04

  FORCE on cell =-STRESS in cart. coord.  units (eV):
  Direction    XX          YY          ZZ          XY          YZ          ZX
  --------------------------------------------------------------------------------------
  Alpha Z    13.01205    13.01205    13.01205
  Ewald   12971.16993 12971.16829-14108.47675     0.00000     0.00000     0.00000
  Hartree 13240.40237 13240.40229-13084.43424     0.00000     0.00000     0.00000
  E(xc)     -99.15536   -99.15535   -98.57173     0.00000     0.00000     0.00000
  Local  -26607.77565-26607.77432 26789.02236     0.00000     0.00000     0.00000
  n-local   150.13464   158.43799   160.65527     2.11163     0.00025    -0.00016
  augment    29.68568    29.68578    28.45153     0.00000     0.00100     0.00000
  Kinetic   292.31606   304.43088   300.33482     5.07573     0.00000     0.00035
  Fock        0.00000     0.00000     0.00000     0.00000     0.00000     0.00000
  -------------------------------------------------------------------------------------
  Total      -0.00133    -0.00133    -0.00669     0.00000     0.00000     0.00000
  in kB      -0.00697    -0.00697    -0.03493     0.00000     0.00000     0.00000
  external pressure =       -0.02 kB  Pullay stress =        0.00 kB


 VOLUME and BASIS-vectors are now :
 -----------------------------------------------------------------------------
  energy-cutoff  :      600.00
  volume of cell :      306.99
      direct lattice vectors                 reciprocal lattice vectors
     1.593981871 -2.760856887  0.000000000     0.313679854 -0.181103194  0.000000000
     1.593981871  2.760856887  0.000000000     0.313679854  0.181103194  0.000000000
     0.000000000  0.000000000 34.879004000     0.000000000  0.000000000  0.028670543

  length of vectors
     3.187963136  3.187963136 34.879004000     0.362206319  0.362206319  0.028670543


 FORCES acting on ions
    electron-ion (+dipol)            ewald-force                    non-local-force                 convergence-correction
 -----------------------------------------------------------------------------------------------
   -.286E-07 0.806E-03 -.311E-03   0.660E-14 0.367E-03 -.257E-02   -.694E-17 0.000E+00 -.217E-18   -.147E-13 -.463E-10 -.812E-07
   0.116E-07 -.967E-03 0.919E+03   0.940E-14 -.183E-03 -.923E+03   -.347E-17 -.173E-16 0.409E+01   0.840E-14 0.798E-10 0.152E-04
   -.163E-06 -.971E-03 -.919E+03   0.325E-13 -.183E-03 0.923E+03   -.347E-17 0.000E+00 -.409E+01   0.576E-14 0.805E-10 -.153E-04
 -----------------------------------------------------------------------------------------------
   -.180E-06 -.113E-02 -.306E-01   0.485E-13 0.153E-13 0.000E+00   -.139E-16 -.173E-16 0.000E+00   -.552E-15 0.114E-09 -.133E-06
 
 
 POSITION                                       TOTAL-FORCE (eV/Angst)
 -----------------------------------------------------------------------------------
      1.59398     -0.92029      3.71974         0.000000      0.000000      0.000000
      1.59398      0.92029      2.15312         0.000000      0.000000     -0.000141
      1.59398      0.92029      5.28640         0.000000      0.000000      0.000141
 -----------------------------------------------------------------------------------
    total drift:                                0.000000     -0.001132     -0.030582


--------------------------------------------------------------------------------------------------------



  FREE ENERGIE OF THE ION-ELECTRON SYSTEM (eV)
  ---------------------------------------------------
  free  energy   TOTEN  =       -15.63088365 eV

  energy  without entropy=      -15.63088365  energy(sigma->0) =      -15.63088365
 
 d Force = 0.2252332E-06[ 0.373E-07, 0.413E-06]  d Energy = 0.1152437E-04-0.113E-04
 d Force = 0.2444583E+00[ 0.244E+00, 0.244E+00]  d Ewald  =-0.1143910E+01 0.139E+01


--------------------------------------------------------------------------------------------------------


    POTLOK:  cpu time   10.72: real time   10.82


--------------------------------------------------------------------------------------------------------


 Quasi-Newton relaxation of ions (Broydens 2nd method)
  g(Force)  = 0.191E-08   g(Stress)= 0.573E-07

 retain information from N=  1 steps
 eigenvalues of (default step * inverse Hessian matrix)
  average eigenvalue of G=   0.9522
 eigenvalue spectrum of G is  0.9522


--------------------------------------------------------------------------------------------------------


  
 reached required accuracy - stopping structural energy minimisation
     LOOP+:  cpu time  247.13: real time  253.22
    4ORBIT:  cpu time    0.00: real time    0.00
 


 total charge     
 
# of ion     s       p       d       tot
----------------------------------------
  1        0.389   6.546   4.294  11.229
  2        1.379   2.361   0.000   3.740
  3        1.379   2.361   0.000   3.740
------------------------------------------------
tot        3.146  11.267   4.294  18.708
 


 magnetization (x)
 
# of ion     s       p       d       tot
----------------------------------------
  1        0.000   0.000   0.000   0.000
  2        0.000   0.000   0.000   0.000
  3        0.000   0.000   0.000   0.000
------------------------------------------------
tot        0.000   0.000   0.000   0.000
 

 total amount of memory used by VASP on root node    64214. kBytes
========================================================================

   base      :      30000. kBytes
   nonl-proj :       9040. kBytes
   fftplans  :       5691. kBytes
   grid      :      14460. kBytes
   one-center:         31. kBytes
   wavefun   :       4992. kBytes
 
  
  
 General timing and accounting informations for this job:
 ========================================================
  
                  Total CPU time used (sec):     1910.207
                            User time (sec):     1895.970
                          System time (sec):       14.237
                         Elapsed time (sec):     1972.823
  
                   Maximum memory used (kb):      234008.
                   Average memory used (kb):           0.
  
                          Minor page faults:      2962595
                          Major page faults:            4
                 Voluntary context switches:         1509
