       N       E                     dE             d eps       ncg     rms          rms(c)
DAV:   1     0.145393542986E+03    0.14539E+03   -0.96581E+03  1176   0.812E+02
DAV:   2     0.101657220620E+01   -0.14438E+03   -0.13760E+03  1336   0.166E+02
DAV:   3    -0.155635351993E+02   -0.16580E+02   -0.16521E+02  1376   0.583E+01
DAV:   4    -0.158524953186E+02   -0.28896E+00   -0.28784E+00  1524   0.850E+00
DAV:   5    -0.158612441446E+02   -0.87488E-02   -0.86865E-02  1464   0.120E+00    0.214E+01
DAV:   6    -0.145369738992E+02    0.13243E+01   -0.84850E+00  1188   0.155E+01    0.821E+00
DAV:   7    -0.146613133646E+02   -0.12434E+00   -0.24160E+00  1136   0.803E+00    0.591E+00
DAV:   8    -0.145700860001E+02    0.91227E-01   -0.34237E-01  1200   0.358E+00    0.269E+00
DAV:   9    -0.148522110962E+02   -0.28213E+00   -0.11812E+00  1100   0.476E+00    0.212E+00
DAV:  10    -0.148072071936E+02    0.45004E-01   -0.26110E+00  1000   0.953E+00    0.159E+00
DAV:  11    -0.149327467497E+02   -0.12554E+00   -0.68795E-02  1076   0.194E+00    0.127E+00
DAV:  12    -0.149608355406E+02   -0.28089E-01   -0.16876E-02  1012   0.115E+00    0.968E-01
DAV:  13    -0.150031142637E+02   -0.42279E-01   -0.26662E-02   992   0.132E+00    0.647E-01
DAV:  14    -0.150241471266E+02   -0.21033E-01   -0.10307E-02  1012   0.766E-01    0.556E-01
DAV:  15    -0.150291888485E+02   -0.50417E-02   -0.97660E-03  1036   0.716E-01    0.414E-01
DAV:  16    -0.150338660606E+02   -0.46772E-02   -0.47756E-03  1000   0.573E-01    0.291E-01
DAV:  17    -0.150393600766E+02   -0.54940E-02   -0.22981E-03  1020   0.419E-01    0.224E-01
DAV:  18    -0.150417926988E+02   -0.24326E-02   -0.67125E-04  1040   0.197E-01    0.168E-01
DAV:  19    -0.150423248172E+02   -0.53212E-03   -0.25147E-04  1040   0.117E-01    0.117E-01
DAV:  20    -0.150424097725E+02   -0.84955E-04   -0.32674E-04  1176   0.102E-01    0.588E-02
DAV:  21    -0.150417916288E+02    0.61814E-03   -0.26923E-04  1060   0.144E-01    0.265E-02
DAV:  22    -0.150412833115E+02    0.50832E-03   -0.94663E-05  1004   0.839E-02    0.129E-02
DAV:  23    -0.150412648962E+02    0.18415E-04   -0.71557E-06   988   0.240E-02    0.621E-03
DAV:  24    -0.150413155145E+02   -0.50618E-04   -0.21936E-06   988   0.834E-03    0.243E-03
DAV:  25    -0.150413147299E+02    0.78461E-06   -0.14467E-06   976   0.576E-03    0.854E-04
DAV:  26    -0.150413191820E+02   -0.44521E-05   -0.42027E-07   848   0.268E-03    0.468E-04
DAV:  27    -0.150413286676E+02   -0.94856E-05   -0.16331E-06   920   0.358E-03    0.350E-04
DAV:  28    -0.150413246846E+02    0.39830E-05   -0.10356E-06   912   0.319E-03    0.165E-04
DAV:  29    -0.150413206949E+02    0.39897E-05   -0.22375E-06  1012   0.454E-03    0.175E-04
DAV:  30    -0.150413218975E+02   -0.12026E-05   -0.28187E-06  1096   0.455E-03    0.120E-04
DAV:  31    -0.150413237084E+02   -0.18109E-05   -0.25030E-06   960   0.418E-03    0.436E-05
DAV:  32    -0.150413292660E+02   -0.55577E-05   -0.44632E-06  1056   0.466E-03    0.423E-05
DAV:  33    -0.150413306159E+02   -0.13499E-05   -0.27996E-07   896   0.156E-03    0.257E-05
DAV:  34    -0.150413282449E+02    0.23710E-05   -0.65676E-07   816   0.264E-03    0.231E-05
DAV:  35    -0.150413254011E+02    0.28438E-05   -0.13020E-05   928   0.562E-03    0.137E-04
DAV:  36    -0.150413235672E+02    0.18338E-05   -0.34671E-05   840   0.621E-03    0.366E-05
DAV:  37    -0.150413206795E+02    0.28877E-05   -0.19340E-05   888   0.829E-03    0.133E-04
DAV:  38    -0.150413207455E+02   -0.66005E-07   -0.33725E-06   840   0.259E-03    0.136E-04
DAV:  39    -0.150413145211E+02    0.62245E-05   -0.47139E-04   864   0.105E-02    0.487E-05
DAV:  40    -0.150413141184E+02    0.40269E-06   -0.39118E-07   880   0.183E-03    0.540E-05
DAV:  41    -0.150413143347E+02   -0.21633E-06   -0.66687E-08   908   0.912E-04    0.531E-05
DAV:  42    -0.150413129095E+02    0.14252E-05   -0.63299E-07   800   0.263E-03    0.535E-05
DAV:  43    -0.150413124763E+02    0.43319E-06   -0.51260E-07   820   0.203E-03    0.469E-05
DAV:  44    -0.150413124485E+02    0.27800E-07   -0.20025E-07   824   0.158E-03
   1 F= -.15041312E+02 E0= -.15041312E+02  d E =-.150413E+02  mag=     0.0000
       N       E                     dE             d eps       ncg     rms          rms(c)
DAV:   1    -0.150421787426E+02   -0.86627E-03   -0.27261E-02   988   0.130E+00    0.335E-01
DAV:   2    -0.150397300405E+02    0.24487E-02   -0.23859E-03   988   0.355E-01    0.776E-02
DAV:   3    -0.150399314223E+02   -0.20138E-03   -0.63563E-04  1192   0.113E-01    0.421E-02
DAV:   4    -0.150397728099E+02    0.15861E-03   -0.13552E-04  1156   0.714E-02    0.331E-02
DAV:   5    -0.150402606297E+02   -0.48782E-03   -0.14144E-05  1036   0.241E-02    0.200E-02
DAV:   6    -0.150407111263E+02   -0.45050E-03   -0.72828E-06  1004   0.133E-02    0.330E-03
DAV:   7    -0.150407905688E+02   -0.79443E-04   -0.52593E-06  1004   0.919E-03    0.161E-03
DAV:   8    -0.150408035514E+02   -0.12983E-04   -0.46609E-06   920   0.609E-03    0.845E-04
DAV:   9    -0.150408102507E+02   -0.66993E-05   -0.36307E-06   916   0.552E-03    0.419E-04
DAV:  10    -0.150408054438E+02    0.48069E-05   -0.25809E-06   984   0.423E-03    0.988E-05
DAV:  11    -0.150408055924E+02   -0.14862E-06   -0.13327E-06   928   0.336E-03    0.113E-04
DAV:  12    -0.150408102012E+02   -0.46088E-05   -0.12067E-06   896   0.366E-03    0.577E-05
DAV:  13    -0.150408169360E+02   -0.67348E-05   -0.24545E-06   936   0.455E-03    0.527E-05
DAV:  14    -0.150408231958E+02   -0.62598E-05   -0.35094E-06   944   0.495E-03    0.610E-05
DAV:  15    -0.150408259780E+02   -0.27822E-05   -0.40145E-06   920   0.479E-03    0.384E-05
DAV:  16    -0.150408281184E+02   -0.21404E-05   -0.18289E-06   824   0.383E-03    0.249E-05
DAV:  17    -0.150408288973E+02   -0.77889E-06   -0.55563E-07   824   0.234E-03    0.121E-05
DAV:  18    -0.150408290841E+02   -0.18685E-06   -0.67288E-07   824   0.209E-03    0.181E-05
DAV:  19    -0.150408293163E+02   -0.23223E-06   -0.27481E-06   840   0.330E-03    0.155E-05
DAV:  20    -0.150408309663E+02   -0.16500E-05   -0.12265E-05   876   0.592E-03    0.277E-05
DAV:  21    -0.150408301042E+02    0.86205E-06   -0.13907E-05   904   0.446E-03    0.129E-05
DAV:  22    -0.150408305885E+02   -0.48423E-06   -0.17558E-06   832   0.273E-03    0.105E-05
DAV:  23    -0.150408313723E+02   -0.78382E-06   -0.32304E-06   856   0.289E-03    0.156E-05
DAV:  24    -0.150408310582E+02    0.31404E-06   -0.59840E-06   816   0.379E-03    0.702E-06
DAV:  25    -0.150408313094E+02   -0.25113E-06   -0.93672E-07   824   0.244E-03    0.600E-06
DAV:  26    -0.150408311540E+02    0.15535E-06   -0.13478E-06   808   0.279E-03    0.101E-05
DAV:  27    -0.150408309791E+02    0.17495E-06   -0.18217E-06   816   0.222E-03    0.677E-06
DAV:  28    -0.150408307585E+02    0.22061E-06   -0.25256E-06   808   0.307E-03    0.119E-05
DAV:  29    -0.150408300332E+02    0.72530E-06   -0.14097E-06   856   0.276E-03    0.111E-05
DAV:  30    -0.150408301280E+02   -0.94796E-07   -0.42297E-07   808   0.159E-03
   2 F= -.15040830E+02 E0= -.15040830E+02  d E =0.482321E-03  mag=     0.0000
       N       E                     dE             d eps       ncg     rms          rms(c)
DAV:   1    -0.150410356116E+02   -0.20558E-03   -0.64427E-03   968   0.613E-01    0.160E-01
DAV:   2    -0.150416733796E+02   -0.63777E-03   -0.52962E-04   976   0.163E-01    0.406E-02
DAV:   3    -0.150415657753E+02    0.10760E-03   -0.14136E-04  1108   0.537E-02    0.198E-02
DAV:   4    -0.150416327886E+02   -0.67013E-04   -0.31197E-05  1112   0.334E-02    0.132E-02
DAV:   5    -0.150414642871E+02    0.16850E-03   -0.36227E-06  1060   0.100E-02    0.851E-03
DAV:   6    -0.150413322118E+02    0.13208E-03   -0.39952E-06  1012   0.536E-03    0.212E-03
DAV:   7    -0.150412538415E+02    0.78370E-04   -0.27344E-02   976   0.134E-02    0.180E-03
DAV:   8    -0.150412798086E+02   -0.25967E-04   -0.86524E-06  1100   0.888E-03    0.474E-04
DAV:   9    -0.150412842609E+02   -0.44523E-05   -0.30019E-05  1216   0.105E-02    0.567E-04
DAV:  10    -0.150412789616E+02    0.52993E-05   -0.13855E-04  1048   0.184E-02    0.407E-04
DAV:  11    -0.150412682596E+02    0.10702E-04   -0.49968E-05   992   0.149E-02    0.309E-04
DAV:  12    -0.150412808950E+02   -0.12635E-04   -0.28537E-05  1064   0.894E-03    0.243E-04
DAV:  13    -0.150412845879E+02   -0.36929E-05   -0.60169E-04   968   0.195E-02    0.199E-04
DAV:  14    -0.150412917016E+02   -0.71137E-05   -0.80299E-06   996   0.587E-03    0.120E-04
DAV:  15    -0.150412883932E+02    0.33085E-05   -0.40936E-06  1184   0.257E-03    0.142E-04
DAV:  16    -0.150412924358E+02   -0.40426E-05   -0.94761E-05  1028   0.674E-03    0.115E-04
DAV:  17    -0.150412889426E+02    0.34932E-05   -0.47613E-05   860   0.781E-03    0.975E-05
DAV:  18    -0.150412803847E+02    0.85578E-05   -0.12022E-05   956   0.613E-03    0.944E-05
DAV:  19    -0.150412800762E+02    0.30849E-06   -0.90724E-07   952   0.199E-03    0.916E-05
DAV:  20    -0.150412806392E+02   -0.56299E-06   -0.51670E-07   920   0.183E-03    0.872E-05
DAV:  21    -0.150412838194E+02   -0.31802E-05   -0.34122E-06   988   0.354E-03    0.827E-05
DAV:  22    -0.150412838040E+02    0.15435E-07   -0.16127E-07   856   0.823E-04
   3 F= -.15041284E+02 E0= -.15041284E+02  d E =-.453676E-03  mag=     0.0000
       N       E                     dE             d eps       ncg     rms          rms(c)
DAV:   1    -0.150412893683E+02   -0.55489E-05   -0.18931E-04  1032   0.984E-02    0.184E-02
DAV:   2    -0.150411715356E+02    0.11783E-03   -0.20852E-05   972   0.292E-02    0.527E-03
DAV:   3    -0.150412148883E+02   -0.43353E-04   -0.15776E-05  1060   0.116E-02    0.336E-03
DAV:   4    -0.150412070880E+02    0.78003E-05   -0.84775E-05  1100   0.153E-02    0.324E-03
DAV:   5    -0.150412412316E+02   -0.34144E-04   -0.11707E-05  1020   0.742E-03    0.159E-03
DAV:   6    -0.150413507358E+02   -0.10950E-03   -0.69741E-06  1096   0.625E-03    0.263E-03
DAV:   7    -0.150412529519E+02    0.97784E-04   -0.39857E-02   896   0.122E-02    0.402E-04
DAV:   8    -0.150412968610E+02   -0.43909E-04   -0.11034E-05  1200   0.669E-03    0.217E-04
DAV:   9    -0.150412838970E+02    0.12964E-04   -0.26042E-05  1056   0.103E-02    0.130E-04
DAV:  10    -0.150412995924E+02   -0.15695E-04   -0.38132E-05   964   0.124E-02    0.216E-04
DAV:  11    -0.150413197754E+02   -0.20183E-04   -0.12177E-05  1024   0.378E-03    0.680E-04
DAV:  12    -0.150413047786E+02    0.14997E-04   -0.80190E-03  1020   0.898E-03    0.123E-04
DAV:  13    -0.150413051710E+02   -0.39237E-06   -0.11571E-06   984   0.148E-03    0.107E-04
DAV:  14    -0.150413057896E+02   -0.61861E-06   -0.41762E-07  1000   0.146E-03    0.833E-05
DAV:  15    -0.150413041722E+02    0.16173E-05   -0.62978E-07   856   0.210E-03    0.623E-05
DAV:  16    -0.150413026137E+02    0.15585E-05   -0.11247E-07   816   0.100E-03    0.563E-05
DAV:  17    -0.150413017851E+02    0.82860E-06   -0.55113E-08   804   0.801E-04    0.547E-05
DAV:  18    -0.150413008002E+02    0.98491E-06   -0.47918E-08   904   0.851E-04    0.548E-05
DAV:  19    -0.150413004685E+02    0.33169E-06   -0.17240E-08   896   0.696E-04    0.545E-05
DAV:  20    -0.150413004096E+02    0.58990E-07   -0.16531E-08   968   0.591E-04
   4 F= -.15041300E+02 E0= -.15041300E+02  d E =-.166056E-04  mag=     0.0000
       N       E                     dE             d eps       ncg     rms          rms(c)
DAV:   1    -0.150413046507E+02   -0.41822E-05   -0.15210E-04  1052   0.878E-02    0.162E-02
DAV:   2    -0.150411911040E+02    0.11355E-03   -0.13115E-05  1064   0.245E-02    0.472E-03
DAV:   3    -0.150412238446E+02   -0.32741E-04   -0.29501E-06  1132   0.760E-03    0.297E-03
DAV:   4    -0.150412189204E+02    0.49242E-05   -0.93580E-07  1112   0.502E-03    0.294E-03
DAV:   5    -0.150412538962E+02   -0.34976E-04   -0.23787E-06   992   0.365E-03    0.140E-03
DAV:   6    -0.150558468500E+02   -0.14593E-01   -0.34590E-05  1328   0.769E-03    0.195E-01
DAV:   7    -0.150412534914E+02    0.14593E-01   -0.39982E+00   964   0.338E-01    0.656E-04
DAV:   8    -0.150412655838E+02   -0.12092E-04   -0.87520E-06  1192   0.983E-03    0.448E-04
DAV:   9    -0.150412640492E+02    0.15346E-05   -0.36750E-06  1056   0.557E-03    0.256E-04
DAV:  10    -0.150412631633E+02    0.88589E-06   -0.11166E-06   972   0.294E-03    0.166E-04
DAV:  11    -0.150412634774E+02   -0.31404E-06   -0.84631E-07   952   0.216E-03    0.863E-05
DAV:  12    -0.150412654762E+02   -0.19988E-05   -0.22493E-06   940   0.357E-03    0.662E-05
DAV:  13    -0.150412689510E+02   -0.34748E-05   -0.29493E-06   900   0.434E-03    0.533E-05
DAV:  14    -0.150412726737E+02   -0.37227E-05   -0.52451E-06   928   0.345E-03    0.429E-05
DAV:  15    -0.150412753464E+02   -0.26727E-05   -0.49727E-05   872   0.769E-03    0.537E-05
DAV:  16    -0.150412747130E+02    0.63345E-06   -0.45603E-07   808   0.120E-03    0.448E-05
DAV:  17    -0.150412741573E+02    0.55574E-06   -0.41498E-07   812   0.121E-03    0.406E-05
DAV:  18    -0.150412736489E+02    0.50833E-06   -0.92658E-07   764   0.132E-03    0.389E-05
DAV:  19    -0.150412754432E+02   -0.17942E-05   -0.19884E-06   800   0.257E-03    0.418E-05
DAV:  20    -0.150412751793E+02    0.26390E-06   -0.26638E-07   724   0.914E-04    0.397E-05
DAV:  21    -0.150413220189E+02   -0.46840E-04   -0.98621E-06   824   0.207E-03    0.175E-03
DAV:  22    -0.150412780143E+02    0.44005E-04   -0.11359E-02   772   0.854E-03    0.430E-05
DAV:  23    -0.150412777720E+02    0.24227E-06   -0.56265E-07   760   0.157E-03    0.406E-05
DAV:  24    -0.150412785392E+02   -0.76718E-06   -0.11168E-07   744   0.942E-04    0.401E-05
DAV:  25    -0.150412793779E+02   -0.83873E-06   -0.86555E-08   728   0.816E-04    0.402E-05
DAV:  26    -0.150412798471E+02   -0.46919E-06   -0.64691E-08   720   0.627E-04    0.404E-05
DAV:  27    -0.150412806835E+02   -0.83641E-06   -0.42904E-08   732   0.683E-04    0.405E-05
DAV:  28    -0.150412810625E+02   -0.37899E-06   -0.25267E-08   752   0.500E-04    0.404E-05
DAV:  29    -0.150412811431E+02   -0.80535E-07   -0.12024E-08   684   0.358E-04
   5 F= -.15041281E+02 E0= -.15041281E+02  d E =0.192665E-04  mag=     0.0000
