 vasp.5.3.3 18Dez12 (build Dec 11 2014 13:53:11) complex                        
  
 executed on             LinuxIFC date 2016.06.15  18:41:35
 running on   16 total cores
 distrk:  each k-point on   16 cores,    1 groups
 distr:  one band on NCORES_PER_BAND=   4 cores,    4 groups


--------------------------------------------------------------------------------------------------------


 INCAR:
 POTCAR:    PAW_PBE W_pv 06Nov2007                
 POTCAR:    PAW_PBE Se 06Sep2000                  

 ----------------------------------------------------------------------------- 
|                                                                             |
|  ADVICE TO THIS USER RUNNING 'VASP/VAMP'   (HEAR YOUR MASTER'S VOICE ...):  |
|                                                                             |
|      You have switched on vdW-DFT.                                          |
|      This routine was written and supplied by Jiri Klimes.                  |
|      We recommed that you carefully read and cite the following             |
|      publication                                                            |
|      J. Klimes, D.R. Bowler, A. Michelides                                  |
|        J. Phys.: Cond Matt. 22 022201 (2010)                                |
|      J. Klimes, D.R. Bowler, A. Michelides                                  |
|        Phys. Rev. B. 83, 195131 (2011)                                      |
|      and references therein.                                                |
|                                                                             |
 ----------------------------------------------------------------------------- 

 POTCAR:    PAW_PBE W_pv 06Nov2007                
   VRHFIN =W : 5p6s5d                                                           
   LEXCH  = PE                                                                  
   EATOM  =  1261.5581 eV,   92.7219 Ry                                         
                                                                                
   TITEL  = PAW_PBE W_pv 06Nov2007                                              
   LULTRA =        F    use ultrasoft PP ?                                      
   IUNSCR =        1    unscreen: 0-lin 1-nonlin 2-no                           
   RPACOR =    2.330    partial core radius                                     
   POMASS =  183.850; ZVAL   =   12.000    mass and valenz                      
   RCORE  =    2.500    outmost cutoff radius                                   
   RWIGS  =    2.750; RWIGS  =    1.455    wigner-seitz radius (au A)           
   ENMAX  =  223.057; ENMIN  =  167.293 eV                                      
   ICORE  =        3    local potential                                         
   LCOR   =        T    correct aug charges                                     
   LPAW   =        T    paw PP                                                  
   EAUG   =  373.438                                                            
   DEXC   =    0.000                                                            
   RMAX   =    2.565    core radius for proj-oper                               
   RAUG   =    1.300    factor for augmentation sphere                          
   RDEP   =    2.539    radius for radial grids                                 
   RDEPT  =    2.143    core radius for aug-charge                              
                                                                                
   Atomic configuration                                                         
   15 entries                                                                   
     n  l   j            E        occ.                                          
     1  0  0.50    -69465.5834   2.0000                                         
     2  0  0.50    -11986.2640   2.0000                                         
     2  1  1.50    -10479.8613   6.0000                                         
     3  0  0.50     -2759.0756   2.0000                                         
     3  1  1.50     -2313.1855   6.0000                                         
     3  2  2.50     -1801.1183  10.0000                                         
     4  0  0.50      -567.6789   2.0000                                         
     4  1  1.50      -421.4692   6.0000                                         
     4  2  2.50      -236.3471  10.0000                                         
     4  3  3.50       -31.2665  14.0000                                         
     5  0  0.50       -77.1084   2.0000                                         
     5  1  1.50       -41.3856   6.0000                                         
     5  2  2.50        -3.3185   5.0000                                         
     6  0  0.50        -5.1438   1.0000                                         
     5  3  2.50        -1.3606   0.0000                                         
   Description                                                                  
     l       E           TYP  RCUT    TYP  RCUT                                 
     1    -41.3855615     23  2.500                                             
     1     -2.7211652     23  2.500                                             
     2     -3.3185025     23  2.500                                             
     2     -1.5965151     23  2.500                                             
     0     -5.1437956     23  2.500                                             
     0      4.9117602     23  2.500                                             
     3     -1.3605826     23  2.500                                             
  local pseudopotential read in
  partial core-charges read in
  partial kinetic energy density read in
  atomic valenz-charges read in
  non local Contribution for L=           1  read in
    real space projection operators read in
  non local Contribution for L=           1  read in
    real space projection operators read in
  non local Contribution for L=           2  read in
    real space projection operators read in
  non local Contribution for L=           2  read in
    real space projection operators read in
  non local Contribution for L=           0  read in
    real space projection operators read in
  non local Contribution for L=           0  read in
    real space projection operators read in
    PAW grid and wavefunctions read in
 
   number of l-projection  operators is LMAX  =           6
   number of lm-projection operators is LMMAX =          18
 
 POTCAR:    PAW_PBE Se 06Sep2000                  
   VRHFIN =Se: s2p4                                                             
   LEXCH  = PE                                                                  
   EATOM  =   257.1286 eV,   18.8984 Ry                                         
                                                                                
   TITEL  = PAW_PBE Se 06Sep2000                                                
   LULTRA =        F    use ultrasoft PP ?                                      
   IUNSCR =        1    unscreen: 0-lin 1-nonlin 2-no                           
   RPACOR =    1.900    partial core radius                                     
   POMASS =   78.960; ZVAL   =    6.000    mass and valenz                      
   RCORE  =    2.100    outmost cutoff radius                                   
   RWIGS  =    2.200; RWIGS  =    1.164    wigner-seitz radius (au A)           
   ENMAX  =  211.555; ENMIN  =  158.666 eV                                      
   ICORE  =        3    local potential                                         
   LCOR   =        T    correct aug charges                                     
   LPAW   =        T    paw PP                                                  
   EAUG   =  446.842                                                            
   DEXC   =    0.000                                                            
   RMAX   =    2.147    core radius for proj-oper                               
   RAUG   =    1.300    factor for augmentation sphere                          
   RDEP   =    2.177    radius for radial grids                                 
   RDEPT  =    1.928    core radius for aug-charge                              
                                                                                
   Atomic configuration                                                         
   10 entries                                                                   
     n  l   j            E        occ.                                          
     1  0  0.50    -12503.4787   2.0000                                         
     2  0  0.50     -1606.9547   2.0000                                         
     2  1  1.50     -1413.3140   6.0000                                         
     3  0  0.50      -213.4885   2.0000                                         
     3  1  1.50      -152.9538   6.0000                                         
     3  2  2.50       -53.1221  10.0000                                         
     4  0  0.50       -17.2865   2.0000                                         
     4  1  0.50        -6.5110   4.0000                                         
     4  2  2.50        -6.8029   0.0000                                         
     4  3  2.50        -6.8029   0.0000                                         
   Description                                                                  
     l       E           TYP  RCUT    TYP  RCUT                                 
     0    -17.2865377     23  2.100                                             
     0    -15.3094411     23  2.100                                             
     1     -6.5110275     23  2.100                                             
     1     -0.0695192     23  2.100                                             
     2     -6.8029130     23  2.100                                             
     3     -1.3605826      7  2.100                                             
  local pseudopotential read in
  partial core-charges read in
  partial kinetic energy density read in
  atomic valenz-charges read in
  non local Contribution for L=           0  read in
    real space projection operators read in
  non local Contribution for L=           0  read in
    real space projection operators read in
  non local Contribution for L=           1  read in
    real space projection operators read in
  non local Contribution for L=           1  read in
    real space projection operators read in
  non local Contribution for L=           2  read in
    real space projection operators read in
    PAW grid and wavefunctions read in
 
   number of l-projection  operators is LMAX  =           5
   number of lm-projection operators is LMMAX =          13
 

 ----------------------------------------------------------------------------- 
|                                                                             |
|  ADVICE TO THIS USER RUNNING 'VASP/VAMP'   (HEAR YOUR MASTER'S VOICE ...):  |
|                                                                             |
|      You enforced a specific xc-type in the INCAR file,                     |
|      a different type was found on the POTCAR file                          |
|          I HOPE YOU KNOW, WHAT YOU ARE  DOING                               |
|                                                                             |
 ----------------------------------------------------------------------------- 

  PAW_PBE W_pv 06Nov2007                :
 energy of atom  1       EATOM=-1261.5581
 kinetic energy error for atom=    0.0023 (will be added to EATOM!!)
  PAW_PBE Se 06Sep2000                  :
 energy of atom  2       EATOM= -257.1286
 kinetic energy error for atom=    0.0008 (will be added to EATOM!!)
 
 
 POSCAR: Surf-mp-1821                            
  positions in direct lattice
  No initial velocities read in
 exchange correlation table for  LEXCH =       42
   RHO(1)=    0.500       N(1)  =     2000
   RHO(2)=  100.500       N(2)  =     4000
 


--------------------------------------------------------------------------------------------------------


 ion  position               nearest neighbor table
   1  0.667  0.333  0.107-   3 2.55   3 2.55   3 2.55   2 2.55   2 2.55   2 2.55
   2  0.333  0.667  0.059-   1 2.55   1 2.55   1 2.55
   3  0.333  0.667  0.155-   1 2.55   1 2.55   1 2.55
 
  LATTYP: Found a hexagonal cell.
 ALAT       =     3.3270700000
 C/A-ratio  =    10.5404908824
  
  Lattice vectors:
  
 A1 = (   1.6635350000,  -2.8813260000,   0.0000000000)
 A2 = (   1.6635350000,   2.8813260000,   0.0000000000)
 A3 = (   0.0000000000,   0.0000000000,  35.0689510000)


Analysis of symmetry for initial positions (statically):
=====================================================================
 Subroutine PRICEL returns:
 Original cell was already a primitive cell.
 

 Routine SETGRP: Setting up the symmetry group for a 
 hexagonal supercell.


 Subroutine GETGRP returns: Found 12 space group operations
 (whereof  6 operations were pure point group operations)
 out of a pool of 24 trial point group operations.


The static configuration has the point symmetry C_3v.
 The point group associated with its full space group is D_3h.


Analysis of symmetry for dynamics (positions and initial velocities):
=====================================================================
 Subroutine PRICEL returns:
 Original cell was already a primitive cell.
 

 Routine SETGRP: Setting up the symmetry group for a 
 hexagonal supercell.


 Subroutine GETGRP returns: Found 12 space group operations
 (whereof  6 operations were pure point group operations)
 out of a pool of 24 trial point group operations.


The dynamic configuration has the point symmetry C_3v.
 The point group associated with its full space group is D_3h.


Analysis of magnetic symmetry:
=====================================================================

 Subroutine MAGSYM returns: Found 12 space group operations
 (whereof  6 operations were pure point group operations)
 out of a pool of 12 trial space group operations
 (whereof  6 operations were pure point group operations)
 and found also     1 'primitive' translations


The magnetic configuration has the point symmetry C_3v.
 The point group associated with its full space group is D_3h.


 irot  :   1
 --------------------------------------------------------------------
 isymop:   1   0   0
           0   1   0
           0   0   1

 gtrans:     0.0000000     0.0000000     0.0000000

 ptrans:     0.0000000     0.0000000     0.0000000
 rotmap:
 (   1->   1)  (   2->   2)  (   3->   3) 


 irot  :   2
 --------------------------------------------------------------------
 isymop:   0  -1   0
           1  -1   0
           0   0   1

 gtrans:     0.0000000     0.0000000     0.0000000

 ptrans:     0.0000000     0.0000000     0.0000000
 rotmap:
 (   1->   1)  (   2->   2)  (   3->   3) 


 irot  :   3
 --------------------------------------------------------------------
 isymop:  -1   1   0
          -1   0   0
           0   0   1

 gtrans:     0.0000000     0.0000000     0.0000000

 ptrans:     0.0000000     0.0000000     0.0000000
 rotmap:
 (   1->   1)  (   2->   2)  (   3->   3) 


 irot  :   4
 --------------------------------------------------------------------
 isymop:  -1   1   0
           0   1   0
           0   0   1

 gtrans:     0.0000000     0.0000000     0.0000000

 ptrans:     0.0000000     0.0000000     0.0000000
 rotmap:
 (   1->   1)  (   2->   2)  (   3->   3) 


 irot  :   5
 --------------------------------------------------------------------
 isymop:   1   0   0
           1  -1   0
           0   0   1

 gtrans:     0.0000000     0.0000000     0.0000000

 ptrans:     0.0000000     0.0000000     0.0000000
 rotmap:
 (   1->   1)  (   2->   2)  (   3->   3) 


 irot  :   6
 --------------------------------------------------------------------
 isymop:   0  -1   0
          -1   0   0
           0   0   1

 gtrans:     0.0000000     0.0000000     0.0000000

 ptrans:     0.0000000     0.0000000     0.0000000
 rotmap:
 (   1->   1)  (   2->   2)  (   3->   3) 


 irot  :   7
 --------------------------------------------------------------------
 isymop:  -1   1   0
          -1   0   0
           0   0  -1

 gtrans:     0.0000010     0.0000000     0.2148480

 ptrans:     0.0000000     0.0000000     0.0000000
 rotmap:
 (   1->   1)  (   2->   3)  (   3->   2) 


 irot  :   8
 --------------------------------------------------------------------
 isymop:   1   0   0
           0   1   0
           0   0  -1

 gtrans:     0.0000000     0.0000000     0.2148480

 ptrans:     0.0000000     0.0000000     0.0000000
 rotmap:
 (   1->   1)  (   2->   3)  (   3->   2) 


 irot  :   9
 --------------------------------------------------------------------
 isymop:   0  -1   0
           1  -1   0
           0   0  -1

 gtrans:     0.0000000     0.0000000     0.2148480

 ptrans:     0.0000000     0.0000000     0.0000000
 rotmap:
 (   1->   1)  (   2->   3)  (   3->   2) 


 irot  :  10
 --------------------------------------------------------------------
 isymop:   0  -1   0
          -1   0   0
           0   0  -1

 gtrans:     0.0000000     0.0000000     0.2148480

 ptrans:     0.0000000     0.0000000     0.0000000
 rotmap:
 (   1->   1)  (   2->   3)  (   3->   2) 


 irot  :  11
 --------------------------------------------------------------------
 isymop:  -1   1   0
           0   1   0
           0   0  -1

 gtrans:     0.0000010     0.0000000     0.2148480

 ptrans:     0.0000000     0.0000000     0.0000000
 rotmap:
 (   1->   1)  (   2->   3)  (   3->   2) 


 irot  :  12
 --------------------------------------------------------------------
 isymop:   1   0   0
           1  -1   0
           0   0  -1

 gtrans:     0.0000000     0.0000000     0.2148480

 ptrans:     0.0000000     0.0000000     0.0000000
 rotmap:
 (   1->   1)  (   2->   3)  (   3->   2) 
 
 
 KPOINTS: Automatic kpoint scheme                 

Automatic generation of k-mesh.
Space group operators:
 irot       det(A)        alpha          n_x          n_y          n_z        tau_x        tau_y        tau_z
    1     1.000000     0.000000     1.000000     0.000000     0.000000     0.000000     0.000000     0.000000
    2     1.000000   120.000000     0.000000     0.000000    -1.000000     0.000000     0.000000     0.000000
    3     1.000000   120.000000     0.000000     0.000000     1.000000     0.000000     0.000000     0.000000
    4    -1.000000   180.000000     0.500000    -0.866025     0.000000     0.000000     0.000000     0.000000
    5    -1.000000   180.000000    -0.500000    -0.866025     0.000000     0.000000     0.000000     0.000000
    6    -1.000000   180.000000     1.000000     0.000000     0.000000     0.000000     0.000000     0.000000
    7    -1.000000    60.000000     0.000000     0.000000    -1.000000     0.000001     0.000000     0.214848
    8    -1.000000   180.000000     0.000000     0.000000     1.000000     0.000000     0.000000     0.214848
    9    -1.000000    60.000000     0.000000     0.000000     1.000000     0.000000     0.000000     0.214848
   10     1.000000   179.999999     0.000000     1.000000     0.000000     0.000000     0.000000     0.214848
   11     1.000000   180.000000     0.866025     0.500000     0.000000     0.000001     0.000000     0.214848
   12     1.000000   180.000000     0.866025    -0.500000     0.000000     0.000000     0.000000     0.214848
 
 Subroutine IBZKPT returns following result:
 ===========================================
 
 Found     12 irreducible k-points:
 
 Following reciprocal coordinates:
            Coordinates               Weight
  0.000000  0.000000  0.000000      1.000000
  0.111111  0.000000  0.000000      6.000000
  0.222222  0.000000  0.000000      6.000000
  0.333333  0.000000  0.000000      6.000000
  0.444444  0.000000  0.000000      6.000000
  0.111111  0.111111  0.000000      6.000000
  0.222222  0.111111  0.000000     12.000000
  0.333333  0.111111  0.000000     12.000000
  0.444444  0.111111  0.000000      6.000000
  0.222222  0.222222  0.000000      6.000000
  0.333333  0.222222  0.000000     12.000000
  0.333333  0.333333  0.000000      2.000000
 
 Following cartesian coordinates:
            Coordinates               Weight
  0.000000  0.000000  0.000000      1.000000
  0.033396 -0.019281  0.000000      6.000000
  0.066792 -0.038562  0.000000      6.000000
  0.100188 -0.057844  0.000000      6.000000
  0.133584 -0.077125  0.000000      6.000000
  0.066792  0.000000  0.000000      6.000000
  0.100188 -0.019281  0.000000     12.000000
  0.133584 -0.038562  0.000000     12.000000
  0.166980 -0.057844  0.000000      6.000000
  0.133584  0.000000  0.000000      6.000000
  0.166980 -0.019281  0.000000     12.000000
  0.200377  0.000000  0.000000      2.000000
 


--------------------------------------------------------------------------------------------------------




 Dimension of arrays:
   k-points           NKPTS =     12   k-points in BZ     NKDIM =     12   number of bands    NBANDS=     20
   number of dos      NEDOS =   5000   number of ions     NIONS =      3
   non local maximal  LDIM  =      6   non local SUM 2l+1 LMDIM =     18
   total plane-waves  NPLWV = 147456
   max r-space proj   IRMAX =      1   max aug-charges    IRDMAX=  25233
   dimension x,y,z NGX =    24 NGY =   24 NGZ =  256
   dimension x,y,z NGXF=    48 NGYF=   48 NGZF=  512
   support grid    NGXF=    48 NGYF=   48 NGZF=  512
   ions per type =               1   2
 NGX,Y,Z   is equivalent  to a cutoff of  11.99, 11.99, 12.14 a.u.
 NGXF,Y,Z  is equivalent  to a cutoff of  23.98, 23.98, 24.27 a.u.


 I would recommend the setting:
   dimension x,y,z NGX =    24 NGY =   24 NGZ =  256
 SYSTEM =  unknown system                          
 POSCAR =  Surf-mp-1821                            

 Startparameter for this run:
   NWRITE =      2    write-flag & timer
   PREC   = accura    normal or accurate (medium, high low for compatibility)
   ISTART =      0    job   : 0-new  1-cont  2-samecut
   ICHARG =      2    charge: 1-file 2-atom 10-const
   ISPIN  =      2    spin polarized calculation?
   LNONCOLLINEAR =      F non collinear calculations
   LSORBIT =      F    spin-orbit coupling
   INIWAV =      1    electr: 0-lowe 1-rand  2-diag
   LASPH  =      F    aspherical Exc in radial PAW
   METAGGA=      F    non-selfconsistent MetaGGA calc.

 Electronic Relaxation 1
   ENCUT  =  500.0 eV  36.75 Ry    6.06 a.u.   6.07  6.07 63.94*2*pi/ulx,y,z
   ENINI  =  500.0     initial cutoff
   ENAUG  =  446.8 eV  augmentation charge cutoff
   NELM   =    500;   NELMIN=  2; NELMDL= -5     # of ELM steps 
   EDIFF  = 0.1E-06   stopping-criterion for ELM
   LREAL  =      F    real-space projection
   NLSPLINE    = F    spline interpolate recip. space projectors
   LCOMPAT=      F    compatible to vasp.4.4
   GGA_COMPAT  = T    GGA compatible to vasp.4.4-vasp.4.6
   LMAXPAW     = -100 max onsite density
   LMAXMIX     =    2 max onsite mixed and CHGCAR
   VOSKOWN=      0    Vosko Wilk Nusair interpolation
   ROPT   =    0.00000   0.00000
 Ionic relaxation
   EDIFFG = -.1E-02   stopping-criterion for IOM
   NSW    =    500    number of steps for IOM
   NBLOCK =      1;   KBLOCK =    500    inner block; outer block 
   IBRION =      1    ionic relax: 0-MD 1-quasi-New 2-CG
   NFREE  =      0    steps in history (QN), initial steepest desc. (CG)
   ISIF   =      3    stress and relaxation
   IWAVPR =     11    prediction:  0-non 1-charg 2-wave 3-comb
   ISYM   =      2    0-nonsym 1-usesym 2-fastsym
   LCORR  =      T    Harris-Foulkes like correction to forces

   POTIM  = 0.5000    time-step for ionic-motion
   TEIN   =    0.0    initial temperature
   TEBEG  =    0.0;   TEEND  =   0.0 temperature during run
   SMASS  =  -3.00    Nose mass-parameter (am)
   estimated Nose-frequenzy (Omega)   =  0.10E-29 period in steps =****** mass=  -0.253E-27a.u.
   SCALEE = 1.0000    scale energy and forces
   NPACO  =    256;   APACO  = 16.0  distance and # of slots for P.C.
   PSTRESS=    0.0 pullay stress

  Mass of Ions in am
   POMASS = 183.85 78.96
  Ionic Valenz
   ZVAL   =  12.00  6.00
  Atomic Wigner-Seitz radii
   RWIGS  =  -1.00 -1.00
  virtual crystal weights 
   VCA    =   1.00  1.00
   NELECT =      24.0000    total number of electrons
   NUPDOWN=      -1.0000    fix difference up-down

 DOS related values:
   EMIN   =  10.00;   EMAX   =-10.00  energy-range for DOS
   EFERMI =   0.00
   ISMEAR =     0;   SIGMA  =   0.20  broadening in eV -4-tet -1-fermi 0-gaus

 Electronic relaxation 2 (details)
   IALGO  =     38    algorithm
   LDIAG  =      T    sub-space diagonalisation (order eigenvalues)
   LSUBROT=      T    optimize rotation matrix (better conditioning)
   TURBO    =      0    0=normal 1=particle mesh
   IRESTART =      0    0=no restart 2=restart with 2 vectors
   NREBOOT  =      0    no. of reboots
   NMIN     =      0    reboot dimension
   EREF     =   0.00    reference energy to select bands
   IMIX   =      4    mixing-type and parameters
     AMIX     =   0.40;   BMIX     =  1.00
     AMIX_MAG =   1.60;   BMIX_MAG =  1.00
     AMIN     =   0.10
     WC   =   100.;   INIMIX=   1;  MIXPRE=   1;  MAXMIX= -45

 Intra band minimization:
   WEIMIN = 0.0010     energy-eigenvalue tresh-hold
   EBREAK =  0.13E-08  absolut break condition
   DEPER  =   0.30     relativ break condition  

   TIME   =   0.40     timestep for ELM

  volume/ion in A,a.u.               =     112.06       756.23
  Fermi-wavevector in a.u.,A,eV,Ry     =   0.679130  1.283369  6.275245  0.461217
  Thomas-Fermi vector in A             =   1.757237
 
 Write flags
   LWAVE  =      F    write WAVECAR
   LCHARG =      F    write CHGCAR
   LVTOT  =      F    write LOCPOT, total local potential
   LVHAR  =      T    write LOCPOT, Hartree potential only
   LELF   =      F    write electronic localiz. function (ELF)
   LORBIT =     11    0 simple, 1 ext, 2 COOP (PROOUT)


 Dipole corrections
   LMONO  =      F    monopole corrections only (constant potential shift)
   LDIPOL =      F    correct potential (dipole corrections)
   IDIPOL =      0    1-x, 2-y, 3-z, 4-all directions 
   EPSILON=  1.0000000 bulk dielectric constant

 Exchange correlation treatment:
   GGA     =    BO    GGA type
   LEXCH   =    42    internal setting for exchange type
   VOSKOWN=      0    Vosko Wilk Nusair interpolation
   LHFCALC =     F    Hartree Fock is set to
   LHFONE  =     F    Hartree Fock one center treatment
   AEXX    =    0.0000 exact exchange contribution

 vdW DFT:
   LUSE_VDW   =     T    switch on vdW DFT
   Zab_VDW    =-.8491    correlation parameter
   PARAM1     =0.1833
   PARAM2     =0.2200
   PARAM3     =0.0000

 Linear response parameters
   LEPSILON=     F    determine dielectric tensor
   LRPA    =     F    only Hartree local field effects (RPA)
   LNABLA  =     F    use nabla operator in PAW spheres
   LVEL    =     F    velocity operator in full k-point grid
   LINTERFAST=   F  fast interpolation
   KINTER  =     0    interpolate to denser k-point grid
   CSHIFT  =0.1000    complex shift for real part using Kramers Kronig
   OMEGAMAX=  -1.0    maximum frequency
   DEG_THRESHOLD= 0.2000000E-02 threshold for treating states as degnerate
   RTIME   =    0.100 relaxation time in fs

 Orbital magnetization related:
   ORBITALMAG=     F  switch on orbital magnetization
   LCHIMAG   =     F  perturbation theory with respect to B field
   DQ        =  0.001000  dq finite difference perturbation B field



--------------------------------------------------------------------------------------------------------


 quasi-Newton-method for relaxation of ions
 charge density and potential will be updated during run
 spin polarized calculation
 Variant of blocked Davidson
 Davidson routine will perform the subspace rotation
 perform sub-space diagonalisation
    after iterative eigenvector-optimisation
 modified Broyden-mixing scheme, WC =      100.0
 initial mixing is a Kerker type mixing with AMIX =  0.4000 and BMIX =      1.0000
 Hartree-type preconditioning will be used
 using additional bands            8
 reciprocal scheme for non local part
 use partial core corrections
 calculate Harris-corrections to forces 
   (improved forces if not selfconsistent)
 use gradient corrections 
 use of overlap-Matrix (Vanderbilt PP)
 Gauss-broadening in eV      SIGMA  =   0.20


--------------------------------------------------------------------------------------------------------


  energy-cutoff  :      500.00
  volume of cell :      336.18
      direct lattice vectors                 reciprocal lattice vectors
     1.663535000 -2.881326000  0.000000000     0.300564761 -0.173531214  0.000000000
     1.663535000  2.881326000  0.000000000     0.300564761  0.173531214  0.000000000
     0.000000000  0.000000000 35.068951000     0.000000000  0.000000000  0.028515253

  length of vectors
     3.327069013  3.327069013 35.068951000     0.347062326  0.347062326  0.028515253


 
 k-points in units of 2pi/SCALE and weight: Automatic kpoint scheme                 
   0.00000000  0.00000000  0.00000000       0.012
   0.03339608 -0.01928125  0.00000000       0.074
   0.06679217 -0.03856249  0.00000000       0.074
   0.10018825 -0.05784374  0.00000000       0.074
   0.13358434 -0.07712498  0.00000000       0.074
   0.06679217  0.00000000  0.00000000       0.074
   0.10018825 -0.01928125  0.00000000       0.148
   0.13358434 -0.03856249  0.00000000       0.148
   0.16698042 -0.05784374  0.00000000       0.074
   0.13358434  0.00000000  0.00000000       0.074
   0.16698042 -0.01928125  0.00000000       0.148
   0.20037651  0.00000000  0.00000000       0.025
 
 k-points in reciprocal lattice and weights: Automatic kpoint scheme                 
   0.00000000  0.00000000  0.00000000       0.012
   0.11111111  0.00000000  0.00000000       0.074
   0.22222222  0.00000000  0.00000000       0.074
   0.33333333  0.00000000  0.00000000       0.074
   0.44444444  0.00000000  0.00000000       0.074
   0.11111111  0.11111111  0.00000000       0.074
   0.22222222  0.11111111  0.00000000       0.148
   0.33333333  0.11111111  0.00000000       0.148
   0.44444444  0.11111111  0.00000000       0.074
   0.22222222  0.22222222  0.00000000       0.074
   0.33333333  0.22222222  0.00000000       0.148
   0.33333333  0.33333333  0.00000000       0.025
 
 position of ions in fractional coordinates (direct lattice) 
   0.66666700  0.33333300  0.10742400
   0.33333300  0.66666700  0.05948300
   0.33333300  0.66666700  0.15536400
 
 position of ions in cartesian coordinates  (Angst):
   1.66353500 -0.96044392  3.76724699
   1.66353500  0.96044392  2.08600641
   1.66353500  0.96044392  5.44845250
 


--------------------------------------------------------------------------------------------------------


 k-point  1 :   0.0000 0.0000 0.0000  plane waves:    8431
 k-point  2 :   0.1111 0.0000 0.0000  plane waves:    8465
 k-point  3 :   0.2222 0.0000 0.0000  plane waves:    8497
 k-point  4 :   0.3333 0.0000 0.0000  plane waves:    8522
 k-point  5 :   0.4444 0.0000 0.0000  plane waves:    8544
 k-point  6 :   0.1111 0.1111 0.0000  plane waves:    8494
 k-point  7 :   0.2222 0.1111 0.0000  plane waves:    8500
 k-point  8 :   0.3333 0.1111 0.0000  plane waves:    8529
 k-point  9 :   0.4444 0.1111 0.0000  plane waves:    8560
 k-point 10 :   0.2222 0.2222 0.0000  plane waves:    8554
 k-point 11 :   0.3333 0.2222 0.0000  plane waves:    8606
 k-point 12 :   0.3333 0.3333 0.0000  plane waves:    8616

 maximum and minimum number of plane-waves per node :      2171     2054

 maximum number of plane-waves:      8616
 maximum index in each direction: 
   IXMAX=    6   IYMAX=    6   IZMAX=   63
   IXMIN=   -6   IYMIN=   -6   IZMIN=  -63

 WARNING: aliasing errors must be expected set NGX to  26 to avoid them
 WARNING: aliasing errors must be expected set NGY to  26 to avoid them
 NGZ is ok and might be reduce to 254
 aliasing errors are usually negligible using standard VASP settings
 and one can safely disregard these warnings

 parallel 3D FFT for wavefunctions:
    minimum data exchange during FFTs selected (reduces bandwidth)
 parallel 3D FFT for charge:
    minimum data exchange during FFTs selected (reduces bandwidth)


 total amount of memory used by VASP on root node    54282. kBytes
========================================================================

   base      :      30000. kBytes
   nonl-proj :       7596. kBytes
   fftplans  :       3585. kBytes
   grid      :       8870. kBytes
   one-center:         31. kBytes
   wavefun   :       4200. kBytes
 
 Broyden mixing: mesh for mixing (old mesh)
   NGX = 13   NGY = 13   NGZ =127
  (NGX  = 48   NGY  = 48   NGZ  =512)
  gives a total of  21463 points

 initial charge density was supplied:
 charge density of overlapping atoms calculated
 number of electron      24.0000000 magnetization       3.0000000
 keeping initial charge density in first step


--------------------------------------------------------------------------------------------------------


 Maximum index for augmentation-charges         1555 (set IRDMAX)


--------------------------------------------------------------------------------------------------------


 First call to EWALD:  gamma=   0.255
 Maximum number of real-space cells 6x 6x 1
 Maximum number of reciprocal cells 2x 2x12

 FEWALD executed in parallel
    FEWALD:  cpu time    0.00: real time    0.00


----------------------------------------- Iteration    1(   1)  ---------------------------------------


vdW kernel read from vdw_kernel.bindat
  0.0000  0.2424  0.5071  0.7962  1.1119  1.4567  1.8333  2.2446  2.6937  3.1842
  3.7199  4.3049  4.9438  5.6415  6.4036  7.2358  8.1446  9.1372 10.2212 11.4050
 12.6979 14.1099 15.6519 17.3360 19.1751 21.1837 23.3773 25.7729 28.3892 31.2465
 34.3669 37.7748 41.4965 45.5611 50.0000
 
    POTLOK:  cpu time   10.17: real time   10.21
    SETDIJ:  cpu time    0.02: real time    0.02
     EDDAV:  cpu time    5.91: real time    5.91
       DOS:  cpu time    0.01: real time    0.01
    --------------------------------------------
      LOOP:  cpu time   16.11: real time   16.24

 eigenvalue-minimisations  :  1176
 total energy-change (2. order) : 0.1453935E+03  (-0.9658061E+03)
 number of electron      24.0000000 magnetization       3.0000000
 augmentation part       24.0000000 magnetization       3.0000000

 Free energy of the ion-electron system (eV)
  ---------------------------------------------------
  alpha Z        PSCENC =        18.95842417
  Ewald energy   TEWEN  =     10665.25335278
  -1/2 Hartree   DENC   =    -12150.32279356
  -exchange  EXHF       =         0.00000000
  -V(xc)+E(xc)   XCENC  =        33.15147904
  PAW double counting   =      1468.60600535    -1430.20227495
  entropy T*S    EENTRO =        -0.05051935
  eigenvalues    EBANDS =      -246.80122900
  atomic energy  EATOM  =      1786.80109851
  ---------------------------------------------------
  free energy    TOTEN  =       145.39354299 eV

  energy without entropy =      145.44406234  energy(sigma->0) =      145.41880266


--------------------------------------------------------------------------------------------------------




----------------------------------------- Iteration    1(   2)  ---------------------------------------


     EDDAV:  cpu time    5.41: real time    5.55
       DOS:  cpu time    0.01: real time    0.01
    --------------------------------------------
      LOOP:  cpu time    5.43: real time    5.95

 eigenvalue-minimisations  :  1336
 total energy-change (2. order) :-0.1443770E+03  (-0.1375990E+03)
 number of electron      24.0000000 magnetization       3.0000000
 augmentation part       24.0000000 magnetization       3.0000000

 Free energy of the ion-electron system (eV)
  ---------------------------------------------------
  alpha Z        PSCENC =        18.95842417
  Ewald energy   TEWEN  =     10665.25335278
  -1/2 Hartree   DENC   =    -12150.32279356
  -exchange  EXHF       =         0.00000000
  -V(xc)+E(xc)   XCENC  =        33.15147904
  PAW double counting   =      1468.60600535    -1430.20227495
  entropy T*S    EENTRO =        -0.00000003
  eigenvalues    EBANDS =      -391.22871910
  atomic energy  EATOM  =      1786.80109851
  ---------------------------------------------------
  free energy    TOTEN  =         1.01657221 eV

  energy without entropy =        1.01657223  energy(sigma->0) =        1.01657222


--------------------------------------------------------------------------------------------------------




----------------------------------------- Iteration    1(   3)  ---------------------------------------


     EDDAV:  cpu time    6.72: real time    6.78
       DOS:  cpu time    0.02: real time    0.02
    --------------------------------------------
      LOOP:  cpu time    6.74: real time    7.11

 eigenvalue-minimisations  :  1376
 total energy-change (2. order) :-0.1658011E+02  (-0.1652120E+02)
 number of electron      24.0000000 magnetization       3.0000000
 augmentation part       24.0000000 magnetization       3.0000000

 Free energy of the ion-electron system (eV)
  ---------------------------------------------------
  alpha Z        PSCENC =        18.95842417
  Ewald energy   TEWEN  =     10665.25335278
  -1/2 Hartree   DENC   =    -12150.32279356
  -exchange  EXHF       =         0.00000000
  -V(xc)+E(xc)   XCENC  =        33.15147904
  PAW double counting   =      1468.60600535    -1430.20227495
  entropy T*S    EENTRO =        -0.00000219
  eigenvalues    EBANDS =      -407.80882435
  atomic energy  EATOM  =      1786.80109851
  ---------------------------------------------------
  free energy    TOTEN  =       -15.56353520 eV

  energy without entropy =      -15.56353301  energy(sigma->0) =      -15.56353411


--------------------------------------------------------------------------------------------------------




----------------------------------------- Iteration    1(   4)  ---------------------------------------


     EDDAV:  cpu time    7.36: real time    7.37
       DOS:  cpu time    0.01: real time    0.01
    --------------------------------------------
      LOOP:  cpu time    7.37: real time    7.53

 eigenvalue-minimisations  :  1524
 total energy-change (2. order) :-0.2889601E+00  (-0.2878423E+00)
 number of electron      24.0000000 magnetization       3.0000000
 augmentation part       24.0000000 magnetization       3.0000000

 Free energy of the ion-electron system (eV)
  ---------------------------------------------------
  alpha Z        PSCENC =        18.95842417
  Ewald energy   TEWEN  =     10665.25335278
  -1/2 Hartree   DENC   =    -12150.32279356
  -exchange  EXHF       =         0.00000000
  -V(xc)+E(xc)   XCENC  =        33.15147904
  PAW double counting   =      1468.60600535    -1430.20227495
  entropy T*S    EENTRO =        -0.00000308
  eigenvalues    EBANDS =      -408.09778357
  atomic energy  EATOM  =      1786.80109851
  ---------------------------------------------------
  free energy    TOTEN  =       -15.85249532 eV

  energy without entropy =      -15.85249223  energy(sigma->0) =      -15.85249378


--------------------------------------------------------------------------------------------------------




----------------------------------------- Iteration    1(   5)  ---------------------------------------


     EDDAV:  cpu time    6.80: real time    6.80
       DOS:  cpu time    0.01: real time    0.01
    CHARGE:  cpu time    0.56: real time    0.57
    MIXING:  cpu time    0.01: real time    0.01
    --------------------------------------------
      LOOP:  cpu time    7.39: real time    7.50

 eigenvalue-minimisations  :  1464
 total energy-change (2. order) :-0.8748826E-02  (-0.8686458E-02)
 number of electron      23.9999998 magnetization       2.8507094
 augmentation part        1.5006923 magnetization       2.8397962

 Broyden mixing:
  rms(total) = 0.21386E+01    rms(broyden)= 0.21386E+01
  rms(prec ) = 0.21467E+01
  weight for this iteration     100.00

 Free energy of the ion-electron system (eV)
  ---------------------------------------------------
  alpha Z        PSCENC =        18.95842417
  Ewald energy   TEWEN  =     10665.25335278
  -1/2 Hartree   DENC   =    -12150.32279356
  -exchange  EXHF       =         0.00000000
  -V(xc)+E(xc)   XCENC  =        33.15147904
  PAW double counting   =      1468.60600535    -1430.20227495
  entropy T*S    EENTRO =        -0.00000311
  eigenvalues    EBANDS =      -408.10653237
  atomic energy  EATOM  =      1786.80109851
  ---------------------------------------------------
  free energy    TOTEN  =       -15.86124414 eV

  energy without entropy =      -15.86124104  energy(sigma->0) =      -15.86124259


--------------------------------------------------------------------------------------------------------




----------------------------------------- Iteration    1(   6)  ---------------------------------------


    POTLOK:  cpu time   10.11: real time   10.15
    SETDIJ:  cpu time    0.02: real time    0.02
     EDDAV:  cpu time    6.05: real time    6.39
       DOS:  cpu time    0.01: real time    0.01
    CHARGE:  cpu time    0.30: real time    0.31
    MIXING:  cpu time    0.02: real time    0.01
    --------------------------------------------
      LOOP:  cpu time   16.52: real time   17.09

 eigenvalue-minimisations  :  1188
 total energy-change (2. order) : 0.1324270E+01  (-0.8484996E+00)
 number of electron      23.9999999 magnetization       2.6764558
 augmentation part        1.9302566 magnetization       2.6705594

 Broyden mixing:
  rms(total) = 0.82129E+00    rms(broyden)= 0.82129E+00
  rms(prec ) = 0.82786E+00
  weight for this iteration     100.00

 eigenvalues of (default mixing * dielectric matrix)
  average eigenvalue GAMMA=   1.1131
  1.1131

 Free energy of the ion-electron system (eV)
  ---------------------------------------------------
  alpha Z        PSCENC =        18.95842417
  Ewald energy   TEWEN  =     10665.25335278
  -1/2 Hartree   DENC   =    -12130.07814980
  -exchange  EXHF       =         0.00000000
  -V(xc)+E(xc)   XCENC  =        32.92802705
  PAW double counting   =      1908.63109905    -1872.43107231
  entropy T*S    EENTRO =        -0.00008002
  eigenvalues    EBANDS =      -424.59967333
  atomic energy  EATOM  =      1786.80109851
  ---------------------------------------------------
  free energy    TOTEN  =       -14.53697390 eV

  energy without entropy =      -14.53689387  energy(sigma->0) =      -14.53693389


--------------------------------------------------------------------------------------------------------




----------------------------------------- Iteration    1(   7)  ---------------------------------------


    POTLOK:  cpu time    9.94: real time   10.01
    SETDIJ:  cpu time    0.06: real time    0.06
     EDDAV:  cpu time    4.96: real time    4.96
       DOS:  cpu time    0.01: real time    0.01
    CHARGE:  cpu time    0.81: real time    0.81
    MIXING:  cpu time    0.04: real time    0.04
    --------------------------------------------
      LOOP:  cpu time   15.82: real time   16.04

 eigenvalue-minimisations  :  1136
 total energy-change (2. order) :-0.1243395E+00  (-0.2415994E+00)
 number of electron      23.9999999 magnetization       2.5180808
 augmentation part        1.7420864 magnetization       2.5186464

 Broyden mixing:
  rms(total) = 0.59121E+00    rms(broyden)= 0.59121E+00
  rms(prec ) = 0.59489E+00
  weight for this iteration     100.00

 eigenvalues of (default mixing * dielectric matrix)
  average eigenvalue GAMMA=   1.0588
  1.5566  0.5610

 Free energy of the ion-electron system (eV)
  ---------------------------------------------------
  alpha Z        PSCENC =        18.95842417
  Ewald energy   TEWEN  =     10665.25335278
  -1/2 Hartree   DENC   =    -12147.84689221
  -exchange  EXHF       =         0.00000000
  -V(xc)+E(xc)   XCENC  =        33.02670470
  PAW double counting   =      2235.14510170    -2199.58938871
  entropy T*S    EENTRO =        -0.00000042
  eigenvalues    EBANDS =      -406.40971388
  atomic energy  EATOM  =      1786.80109851
  ---------------------------------------------------
  free energy    TOTEN  =       -14.66131336 eV

  energy without entropy =      -14.66131295  energy(sigma->0) =      -14.66131316


--------------------------------------------------------------------------------------------------------




----------------------------------------- Iteration    1(   8)  ---------------------------------------


    POTLOK:  cpu time   10.10: real time   10.24
    SETDIJ:  cpu time    0.03: real time    0.03
     EDDAV:  cpu time    6.38: real time    6.42
       DOS:  cpu time    0.01: real time    0.01
    CHARGE:  cpu time    0.36: real time    0.37
    MIXING:  cpu time    0.01: real time    0.01
    --------------------------------------------
      LOOP:  cpu time   16.90: real time   23.29

 eigenvalue-minimisations  :  1200
 total energy-change (2. order) : 0.9122736E-01  (-0.3423711E-01)
 number of electron      23.9999999 magnetization       2.3298611
 augmentation part        1.8189654 magnetization       2.3303802

 Broyden mixing:
  rms(total) = 0.26917E+00    rms(broyden)= 0.26917E+00
  rms(prec ) = 0.26966E+00
  weight for this iteration     100.00

 eigenvalues of (default mixing * dielectric matrix)
  average eigenvalue GAMMA=   1.2428
  2.2131  0.8844  0.6308

 Free energy of the ion-electron system (eV)
  ---------------------------------------------------
  alpha Z        PSCENC =        18.95842417
  Ewald energy   TEWEN  =     10665.25335278
  -1/2 Hartree   DENC   =    -12144.52067158
  -exchange  EXHF       =         0.00000000
  -V(xc)+E(xc)   XCENC  =        32.98949447
  PAW double counting   =      2424.93708229    -2390.07548472
  entropy T*S    EENTRO =        -0.00000113
  eigenvalues    EBANDS =      -408.91338080
  atomic energy  EATOM  =      1786.80109851
  ---------------------------------------------------
  free energy    TOTEN  =       -14.57008600 eV

  energy without entropy =      -14.57008487  energy(sigma->0) =      -14.57008544


--------------------------------------------------------------------------------------------------------




----------------------------------------- Iteration    1(   9)  ---------------------------------------


    POTLOK:  cpu time    9.02: real time    9.04
    SETDIJ:  cpu time    0.04: real time    0.03
     EDDAV:  cpu time    6.46: real time    6.54
       DOS:  cpu time    0.01: real time    0.01
    CHARGE:  cpu time    0.53: real time    0.53
    MIXING:  cpu time    0.01: real time    0.01
    --------------------------------------------
      LOOP:  cpu time   16.07: real time   16.32

 eigenvalue-minimisations  :  1100
 total energy-change (2. order) :-0.2821251E+00  (-0.1181214E+00)
 number of electron      23.9999999 magnetization       1.9901414
 augmentation part        1.8676113 magnetization       1.9858292

 Broyden mixing:
  rms(total) = 0.21195E+00    rms(broyden)= 0.21195E+00
  rms(prec ) = 0.21218E+00
  weight for this iteration     100.00

 eigenvalues of (default mixing * dielectric matrix)
  average eigenvalue GAMMA=   1.2489
  2.1179  1.5148  0.6814  0.6814

 Free energy of the ion-electron system (eV)
  ---------------------------------------------------
  alpha Z        PSCENC =        18.95842417
  Ewald energy   TEWEN  =     10665.25335278
  -1/2 Hartree   DENC   =    -12144.74707227
  -exchange  EXHF       =         0.00000000
  -V(xc)+E(xc)   XCENC  =        32.97985599
  PAW double counting   =      2537.84546833    -2503.33790630
  entropy T*S    EENTRO =        -0.00000552
  eigenvalues    EBANDS =      -408.60542678
  atomic energy  EATOM  =      1786.80109851
  ---------------------------------------------------
  free energy    TOTEN  =       -14.85221110 eV

  energy without entropy =      -14.85220557  energy(sigma->0) =      -14.85220833


--------------------------------------------------------------------------------------------------------




----------------------------------------- Iteration    1(  10)  ---------------------------------------


    POTLOK:  cpu time   10.91: real time   11.15
    SETDIJ:  cpu time    0.03: real time    0.03
     EDDAV:  cpu time    4.94: real time    4.95
       DOS:  cpu time    0.01: real time    0.01
    CHARGE:  cpu time    0.35: real time    0.35
    MIXING:  cpu time    0.01: real time    0.01
    --------------------------------------------
      LOOP:  cpu time   16.25: real time   16.74

 eigenvalue-minimisations  :  1000
 total energy-change (2. order) : 0.4500390E-01  (-0.2610958E+00)
 number of electron      23.9999999 magnetization       1.6434255
 augmentation part        1.8410059 magnetization       1.6402194

 Broyden mixing:
  rms(total) = 0.15880E+00    rms(broyden)= 0.15880E+00
  rms(prec ) = 0.15896E+00
  weight for this iteration     100.00

 eigenvalues of (default mixing * dielectric matrix)
  average eigenvalue GAMMA=   1.4096
  2.7771  2.2144  0.8291  0.6391  0.5883

 Free energy of the ion-electron system (eV)
  ---------------------------------------------------
  alpha Z        PSCENC =        18.95842417
  Ewald energy   TEWEN  =     10665.25335278
  -1/2 Hartree   DENC   =    -12145.75453341
  -exchange  EXHF       =         0.00000000
  -V(xc)+E(xc)   XCENC  =        32.91278588
  PAW double counting   =      2531.16014191    -2496.57480943
  entropy T*S    EENTRO =        -0.00000040
  eigenvalues    EBANDS =      -407.56366721
  atomic energy  EATOM  =      1786.80109851
  ---------------------------------------------------
  free energy    TOTEN  =       -14.80720719 eV

  energy without entropy =      -14.80720679  energy(sigma->0) =      -14.80720699


--------------------------------------------------------------------------------------------------------




----------------------------------------- Iteration    1(  11)  ---------------------------------------


    POTLOK:  cpu time    9.62: real time    9.71
    SETDIJ:  cpu time    0.03: real time    0.04
     EDDAV:  cpu time    5.75: real time    5.77
       DOS:  cpu time    0.01: real time    0.01
    CHARGE:  cpu time    0.35: real time    0.35
    MIXING:  cpu time    0.01: real time    0.01
    --------------------------------------------
      LOOP:  cpu time   15.78: real time   16.27

 eigenvalue-minimisations  :  1076
 total energy-change (2. order) :-0.1255396E+00  (-0.6879539E-02)
 number of electron      23.9999999 magnetization       1.3954531
 augmentation part        1.8289417 magnetization       1.3943828

 Broyden mixing:
  rms(total) = 0.12675E+00    rms(broyden)= 0.12675E+00
  rms(prec ) = 0.12712E+00
  weight for this iteration     100.00

 eigenvalues of (default mixing * dielectric matrix)
  average eigenvalue GAMMA=   1.5778
  4.2980  2.1220  0.9981  0.6233  0.7125  0.7125

 Free energy of the ion-electron system (eV)
  ---------------------------------------------------
  alpha Z        PSCENC =        18.95842417
  Ewald energy   TEWEN  =     10665.25335278
  -1/2 Hartree   DENC   =    -12147.68466194
  -exchange  EXHF       =         0.00000000
  -V(xc)+E(xc)   XCENC  =        32.87961600
  PAW double counting   =      2539.04374400    -2504.45168128
  entropy T*S    EENTRO =        -0.00000009
  eigenvalues    EBANDS =      -405.73263890
  atomic energy  EATOM  =      1786.80109851
  ---------------------------------------------------
  free energy    TOTEN  =       -14.93274675 eV

  energy without entropy =      -14.93274666  energy(sigma->0) =      -14.93274671


--------------------------------------------------------------------------------------------------------




----------------------------------------- Iteration    1(  12)  ---------------------------------------


    POTLOK:  cpu time   10.95: real time   11.10
    SETDIJ:  cpu time    0.03: real time    0.03
     EDDAV:  cpu time    6.52: real time    6.53
       DOS:  cpu time    0.01: real time    0.01
    CHARGE:  cpu time    0.33: real time    0.33
    MIXING:  cpu time    0.02: real time    0.02
    --------------------------------------------
      LOOP:  cpu time   17.87: real time   18.48

 eigenvalue-minimisations  :  1012
 total energy-change (2. order) :-0.2808879E-01  (-0.1687557E-02)
 number of electron      23.9999999 magnetization       1.0433643
 augmentation part        1.8378388 magnetization       1.0435243

 Broyden mixing:
  rms(total) = 0.96784E-01    rms(broyden)= 0.96784E-01
  rms(prec ) = 0.96940E-01
  weight for this iteration     100.00

 eigenvalues of (default mixing * dielectric matrix)
  average eigenvalue GAMMA=   1.8032
  6.0824  2.1722  1.1521  1.1521  0.7873  0.6383  0.6383

 Free energy of the ion-electron system (eV)
  ---------------------------------------------------
  alpha Z        PSCENC =        18.95842417
  Ewald energy   TEWEN  =     10665.25335278
  -1/2 Hartree   DENC   =    -12148.84730618
  -exchange  EXHF       =         0.00000000
  -V(xc)+E(xc)   XCENC  =        32.85916846
  PAW double counting   =      2533.87097251    -2499.29394854
  entropy T*S    EENTRO =        -0.00000015
  eigenvalues    EBANDS =      -404.56259710
  atomic energy  EATOM  =      1786.80109851
  ---------------------------------------------------
  free energy    TOTEN  =       -14.96083554 eV

  energy without entropy =      -14.96083539  energy(sigma->0) =      -14.96083546


--------------------------------------------------------------------------------------------------------




----------------------------------------- Iteration    1(  13)  ---------------------------------------


    POTLOK:  cpu time    9.37: real time    9.39
    SETDIJ:  cpu time    0.06: real time    0.06
     EDDAV:  cpu time    7.05: real time    7.43
       DOS:  cpu time    0.01: real time    0.01
    CHARGE:  cpu time    0.36: real time    0.36
    MIXING:  cpu time    0.01: real time    0.01
    --------------------------------------------
      LOOP:  cpu time   16.86: real time   17.42

 eigenvalue-minimisations  :   992
 total energy-change (2. order) :-0.4227872E-01  (-0.2666245E-02)
 number of electron      23.9999999 magnetization       0.8657038
 augmentation part        1.8492092 magnetization       0.8654330

 Broyden mixing:
  rms(total) = 0.64692E-01    rms(broyden)= 0.64692E-01
  rms(prec ) = 0.64721E-01
  weight for this iteration     100.00

 eigenvalues of (default mixing * dielectric matrix)
  average eigenvalue GAMMA=   2.0473
  8.3224  2.2641  1.9737  1.0378  0.7560  0.7560  0.6343  0.6343

 Free energy of the ion-electron system (eV)
  ---------------------------------------------------
  alpha Z        PSCENC =        18.95842417
  Ewald energy   TEWEN  =     10665.25335278
  -1/2 Hartree   DENC   =    -12150.66758295
  -exchange  EXHF       =         0.00000000
  -V(xc)+E(xc)   XCENC  =        32.82621610
  PAW double counting   =      2521.50286852    -2486.93312882
  entropy T*S    EENTRO =        -0.00000032
  eigenvalues    EBANDS =      -402.74436224
  atomic energy  EATOM  =      1786.80109851
  ---------------------------------------------------
  free energy    TOTEN  =       -15.00311426 eV

  energy without entropy =      -15.00311394  energy(sigma->0) =      -15.00311410


--------------------------------------------------------------------------------------------------------




----------------------------------------- Iteration    1(  14)  ---------------------------------------


    POTLOK:  cpu time    9.96: real time   10.03
    SETDIJ:  cpu time    0.03: real time    0.03
     EDDAV:  cpu time    5.46: real time    5.48
       DOS:  cpu time    0.01: real time    0.01
    CHARGE:  cpu time    0.28: real time    0.29
    MIXING:  cpu time    0.01: real time    0.01
    --------------------------------------------
      LOOP:  cpu time   15.75: real time   16.04

 eigenvalue-minimisations  :  1012
 total energy-change (2. order) :-0.2103286E-01  (-0.1030716E-02)
 number of electron      23.9999999 magnetization       0.6613453
 augmentation part        1.8518295 magnetization       0.6611505

 Broyden mixing:
  rms(total) = 0.55624E-01    rms(broyden)= 0.55624E-01
  rms(prec ) = 0.55673E-01
  weight for this iteration     100.00

 eigenvalues of (default mixing * dielectric matrix)
  average eigenvalue GAMMA=   2.0756
  9.1327  2.2440  2.2440  1.1585  1.1585  0.7999  0.6505  0.6505  0.6416

 Free energy of the ion-electron system (eV)
  ---------------------------------------------------
  alpha Z        PSCENC =        18.95842417
  Ewald energy   TEWEN  =     10665.25335278
  -1/2 Hartree   DENC   =    -12151.07576196
  -exchange  EXHF       =         0.00000000
  -V(xc)+E(xc)   XCENC  =        32.81553076
  PAW double counting   =      2517.81060428    -2483.23371172
  entropy T*S    EENTRO =        -0.00000038
  eigenvalues    EBANDS =      -402.35368358
  atomic energy  EATOM  =      1786.80109851
  ---------------------------------------------------
  free energy    TOTEN  =       -15.02414713 eV

  energy without entropy =      -15.02414675  energy(sigma->0) =      -15.02414694


--------------------------------------------------------------------------------------------------------




----------------------------------------- Iteration    1(  15)  ---------------------------------------


    POTLOK:  cpu time   10.56: real time   10.58
    SETDIJ:  cpu time    0.02: real time    0.02
     EDDAV:  cpu time    5.70: real time    5.73
       DOS:  cpu time    0.01: real time    0.01
    CHARGE:  cpu time    0.52: real time    0.53
    MIXING:  cpu time    0.03: real time    0.03
    --------------------------------------------
      LOOP:  cpu time   16.85: real time   17.05

 eigenvalue-minimisations  :  1036
 total energy-change (2. order) :-0.5041722E-02  (-0.9766004E-03)
 number of electron      23.9999999 magnetization       0.4156914
 augmentation part        1.8499898 magnetization       0.4156582

 Broyden mixing:
  rms(total) = 0.41430E-01    rms(broyden)= 0.41430E-01
  rms(prec ) = 0.41452E-01
  weight for this iteration     100.00

 eigenvalues of (default mixing * dielectric matrix)
  average eigenvalue GAMMA=   2.3272
 10.6851  3.8751  2.3262  1.6439  1.2047  0.8358  0.7120  0.7120  0.6385  0.6385

 Free energy of the ion-electron system (eV)
  ---------------------------------------------------
  alpha Z        PSCENC =        18.95842417
  Ewald energy   TEWEN  =     10665.25335278
  -1/2 Hartree   DENC   =    -12150.80696676
  -exchange  EXHF       =         0.00000000
  -V(xc)+E(xc)   XCENC  =        32.80936912
  PAW double counting   =      2529.06024660    -2494.48686741
  entropy T*S    EENTRO =        -0.00000035
  eigenvalues    EBANDS =      -402.61784551
  atomic energy  EATOM  =      1786.80109851
  ---------------------------------------------------
  free energy    TOTEN  =       -15.02918885 eV

  energy without entropy =      -15.02918850  energy(sigma->0) =      -15.02918867


--------------------------------------------------------------------------------------------------------




----------------------------------------- Iteration    1(  16)  ---------------------------------------


    POTLOK:  cpu time   10.24: real time   10.28
    SETDIJ:  cpu time    0.03: real time    0.03
     EDDAV:  cpu time    5.90: real time    5.95
       DOS:  cpu time    0.01: real time    0.01
    CHARGE:  cpu time    0.59: real time    0.59
    MIXING:  cpu time    0.04: real time    0.04
    --------------------------------------------
      LOOP:  cpu time   16.81: real time   17.03

 eigenvalue-minimisations  :  1000
 total energy-change (2. order) :-0.4677212E-02  (-0.4775638E-03)
 number of electron      23.9999999 magnetization       0.2960625
 augmentation part        1.8481491 magnetization       0.2961541

 Broyden mixing:
  rms(total) = 0.29139E-01    rms(broyden)= 0.29139E-01
  rms(prec ) = 0.29168E-01
  weight for this iteration     100.00

 eigenvalues of (default mixing * dielectric matrix)
  average eigenvalue GAMMA=   2.4384
 12.0486  4.9880  1.9736  1.9736  1.1890  1.1890  0.7999  0.6907  0.6907  0.6393
  0.6393

 Free energy of the ion-electron system (eV)
  ---------------------------------------------------
  alpha Z        PSCENC =        18.95842417
  Ewald energy   TEWEN  =     10665.25335278
  -1/2 Hartree   DENC   =    -12150.78601468
  -exchange  EXHF       =         0.00000000
  -V(xc)+E(xc)   XCENC  =        32.79921002
  PAW double counting   =      2530.90819864    -2496.32459115
  entropy T*S    EENTRO =        -0.00000033
  eigenvalues    EBANDS =      -402.64354403
  atomic energy  EATOM  =      1786.80109851
  ---------------------------------------------------
  free energy    TOTEN  =       -15.03386606 eV

  energy without entropy =      -15.03386573  energy(sigma->0) =      -15.03386590


--------------------------------------------------------------------------------------------------------




----------------------------------------- Iteration    1(  17)  ---------------------------------------


    POTLOK:  cpu time    9.63: real time   10.16
    SETDIJ:  cpu time    0.05: real time    0.06
     EDDAV:  cpu time    4.99: real time    5.01
       DOS:  cpu time    0.01: real time    0.01
    CHARGE:  cpu time    0.49: real time    0.49
    MIXING:  cpu time    0.04: real time    0.03
    --------------------------------------------
      LOOP:  cpu time   15.21: real time   16.12

 eigenvalue-minimisations  :  1020
 total energy-change (2. order) :-0.5494016E-02  (-0.2298113E-03)
 number of electron      23.9999999 magnetization       0.1889577
 augmentation part        1.8471581 magnetization       0.1888876

 Broyden mixing:
  rms(total) = 0.22397E-01    rms(broyden)= 0.22397E-01
  rms(prec ) = 0.22428E-01
  weight for this iteration     100.00

 eigenvalues of (default mixing * dielectric matrix)
  average eigenvalue GAMMA=   2.5374
 13.3260  5.8127  2.1638  2.1638  1.4446  1.2080  0.9536  0.7318  0.7318  0.6469
  0.6469  0.6189

 Free energy of the ion-electron system (eV)
  ---------------------------------------------------
  alpha Z        PSCENC =        18.95842417
  Ewald energy   TEWEN  =     10665.25335278
  -1/2 Hartree   DENC   =    -12150.62216508
  -exchange  EXHF       =         0.00000000
  -V(xc)+E(xc)   XCENC  =        32.79492848
  PAW double counting   =      2525.06310220    -2490.46751988
  entropy T*S    EENTRO =        -0.00000029
  eigenvalues    EBANDS =      -402.82058097
  atomic energy  EATOM  =      1786.80109851
  ---------------------------------------------------
  free energy    TOTEN  =       -15.03936008 eV

  energy without entropy =      -15.03935979  energy(sigma->0) =      -15.03935993


--------------------------------------------------------------------------------------------------------




----------------------------------------- Iteration    1(  18)  ---------------------------------------


    POTLOK:  cpu time    9.78: real time    9.82
    SETDIJ:  cpu time    0.02: real time    0.02
     EDDAV:  cpu time    5.57: real time    5.65
       DOS:  cpu time    0.01: real time    0.01
    CHARGE:  cpu time    0.34: real time    0.34
    MIXING:  cpu time    0.02: real time    0.02
    --------------------------------------------
      LOOP:  cpu time   15.74: real time   16.03

 eigenvalue-minimisations  :  1040
 total energy-change (2. order) :-0.2432622E-02  (-0.6712519E-04)
 number of electron      23.9999999 magnetization       0.1134583
 augmentation part        1.8477096 magnetization       0.1134777

 Broyden mixing:
  rms(total) = 0.16768E-01    rms(broyden)= 0.16768E-01
  rms(prec ) = 0.16775E-01
  weight for this iteration     100.00

 eigenvalues of (default mixing * dielectric matrix)
  average eigenvalue GAMMA=   2.6387
 14.6265  6.5482  2.6892  2.2311  1.7181  1.1604  1.1604  0.8636  0.7080  0.7080
  0.6417  0.6417  0.6062

 Free energy of the ion-electron system (eV)
  ---------------------------------------------------
  alpha Z        PSCENC =        18.95842417
  Ewald energy   TEWEN  =     10665.25335278
  -1/2 Hartree   DENC   =    -12150.20845409
  -exchange  EXHF       =         0.00000000
  -V(xc)+E(xc)   XCENC  =        32.79275298
  PAW double counting   =      2525.73807968    -2491.15348796
  entropy T*S    EENTRO =        -0.00000029
  eigenvalues    EBANDS =      -403.22355849
  atomic energy  EATOM  =      1786.80109851
  ---------------------------------------------------
  free energy    TOTEN  =       -15.04179270 eV

  energy without entropy =      -15.04179241  energy(sigma->0) =      -15.04179256


--------------------------------------------------------------------------------------------------------




----------------------------------------- Iteration    1(  19)  ---------------------------------------


    POTLOK:  cpu time    9.78: real time   10.01
    SETDIJ:  cpu time    0.03: real time    0.03
     EDDAV:  cpu time    5.91: real time    5.92
       DOS:  cpu time    0.01: real time    0.01
    CHARGE:  cpu time    0.37: real time    0.37
    MIXING:  cpu time    0.02: real time    0.02
    --------------------------------------------
      LOOP:  cpu time   16.12: real time   16.57

 eigenvalue-minimisations  :  1040
 total energy-change (2. order) :-0.5321184E-03  (-0.2514742E-04)
 number of electron      23.9999999 magnetization       0.0391512
 augmentation part        1.8484112 magnetization       0.0391406

 Broyden mixing:
  rms(total) = 0.11716E-01    rms(broyden)= 0.11716E-01
  rms(prec ) = 0.11731E-01
  weight for this iteration     100.00

 eigenvalues of (default mixing * dielectric matrix)
  average eigenvalue GAMMA=   2.7853
 15.9524  7.3739  3.8025  2.0265  2.0265  1.5388  1.0815  1.0815  0.8165  0.6995
  0.6995  0.6430  0.6430  0.6083

 Free energy of the ion-electron system (eV)
  ---------------------------------------------------
  alpha Z        PSCENC =        18.95842417
  Ewald energy   TEWEN  =     10665.25335278
  -1/2 Hartree   DENC   =    -12150.01022610
  -exchange  EXHF       =         0.00000000
  -V(xc)+E(xc)   XCENC  =        32.79275816
  PAW double counting   =      2526.95579750    -2492.38384999
  entropy T*S    EENTRO =        -0.00000030
  eigenvalues    EBANDS =      -403.40967956
  atomic energy  EATOM  =      1786.80109851
  ---------------------------------------------------
  free energy    TOTEN  =       -15.04232482 eV

  energy without entropy =      -15.04232452  energy(sigma->0) =      -15.04232467


--------------------------------------------------------------------------------------------------------




----------------------------------------- Iteration    1(  20)  ---------------------------------------


    POTLOK:  cpu time   10.56: real time   10.63
    SETDIJ:  cpu time    0.03: real time    0.03
     EDDAV:  cpu time    5.52: real time    5.59
       DOS:  cpu time    0.02: real time    0.02
    CHARGE:  cpu time    0.88: real time    0.88
    MIXING:  cpu time    0.05: real time    0.05
    --------------------------------------------
      LOOP:  cpu time   17.06: real time   17.32

 eigenvalue-minimisations  :  1176
 total energy-change (2. order) :-0.8495527E-04  (-0.3267445E-04)
 number of electron      23.9999999 magnetization       0.0117280
 augmentation part        1.8474584 magnetization       0.0117307

 Broyden mixing:
  rms(total) = 0.58783E-02    rms(broyden)= 0.58783E-02
  rms(prec ) = 0.59081E-02
  weight for this iteration     100.00

 eigenvalues of (default mixing * dielectric matrix)
  average eigenvalue GAMMA=   2.9536
 17.6900  8.5259  4.7756  2.1907  2.1907  1.6331  1.1869  1.1869  0.8754  0.7366
  0.7366  0.6655  0.6655  0.6225  0.6225

 Free energy of the ion-electron system (eV)
  ---------------------------------------------------
  alpha Z        PSCENC =        18.95842417
  Ewald energy   TEWEN  =     10665.25335278
  -1/2 Hartree   DENC   =    -12149.89615651
  -exchange  EXHF       =         0.00000000
  -V(xc)+E(xc)   XCENC  =        32.79394052
  PAW double counting   =      2524.29286018    -2489.71590816
  entropy T*S    EENTRO =        -0.00000027
  eigenvalues    EBANDS =      -403.53002099
  atomic energy  EATOM  =      1786.80109851
  ---------------------------------------------------
  free energy    TOTEN  =       -15.04240977 eV

  energy without entropy =      -15.04240950  energy(sigma->0) =      -15.04240964


--------------------------------------------------------------------------------------------------------




----------------------------------------- Iteration    1(  21)  ---------------------------------------


    POTLOK:  cpu time   10.00: real time   10.46
    SETDIJ:  cpu time    0.05: real time    0.05
     EDDAV:  cpu time    5.48: real time    5.49
       DOS:  cpu time    0.01: real time    0.01
    CHARGE:  cpu time    0.58: real time    0.58
    MIXING:  cpu time    0.03: real time    0.03
    --------------------------------------------
      LOOP:  cpu time   16.17: real time   16.75

 eigenvalue-minimisations  :  1060
 total energy-change (2. order) : 0.6181437E-03  (-0.2692303E-04)
 number of electron      23.9999999 magnetization       0.0008133
 augmentation part        1.8479456 magnetization       0.0007988

 Broyden mixing:
  rms(total) = 0.26488E-02    rms(broyden)= 0.26488E-02
  rms(prec ) = 0.26666E-02
  weight for this iteration     100.00

 eigenvalues of (default mixing * dielectric matrix)
  average eigenvalue GAMMA=   3.1174
 19.6437  9.7359  5.3847  2.4970  2.3654  1.6359  1.6359  1.0663  1.0663  0.8359
  0.7271  0.7271  0.6577  0.6577  0.6205  0.6205

 Free energy of the ion-electron system (eV)
  ---------------------------------------------------
  alpha Z        PSCENC =        18.95842417
  Ewald energy   TEWEN  =     10665.25335278
  -1/2 Hartree   DENC   =    -12149.80763724
  -exchange  EXHF       =         0.00000000
  -V(xc)+E(xc)   XCENC  =        32.79342558
  PAW double counting   =      2524.78048397    -2490.20123810
  entropy T*S    EENTRO =        -0.00000029
  eigenvalues    EBANDS =      -403.61970101
  atomic energy  EATOM  =      1786.80109851
  ---------------------------------------------------
  free energy    TOTEN  =       -15.04179163 eV

  energy without entropy =      -15.04179134  energy(sigma->0) =      -15.04179149


--------------------------------------------------------------------------------------------------------




----------------------------------------- Iteration    1(  22)  ---------------------------------------


    POTLOK:  cpu time    9.88: real time    9.91
    SETDIJ:  cpu time    0.02: real time    0.02
     EDDAV:  cpu time    4.84: real time    4.86
       DOS:  cpu time    0.01: real time    0.01
    CHARGE:  cpu time    0.46: real time    0.46
    MIXING:  cpu time    0.02: real time    0.02
    --------------------------------------------
      LOOP:  cpu time   15.25: real time   15.39

 eigenvalue-minimisations  :  1004
 total energy-change (2. order) : 0.5083173E-03  (-0.9466346E-05)
 number of electron      23.9999999 magnetization       0.0002486
 augmentation part        1.8482080 magnetization       0.0002421

 Broyden mixing:
  rms(total) = 0.12900E-02    rms(broyden)= 0.12900E-02
  rms(prec ) = 0.13009E-02
  weight for this iteration     100.00

 eigenvalues of (default mixing * dielectric matrix)
  average eigenvalue GAMMA=   3.0279
 20.0033  9.9272  5.4740  2.7024  2.2424  1.8496  1.5003  1.1170  1.1170  0.8505
  0.7376  0.7376  0.6693  0.6693  0.6144  0.6317  0.6317

 Free energy of the ion-electron system (eV)
  ---------------------------------------------------
  alpha Z        PSCENC =        18.95842417
  Ewald energy   TEWEN  =     10665.25335278
  -1/2 Hartree   DENC   =    -12149.80778137
  -exchange  EXHF       =         0.00000000
  -V(xc)+E(xc)   XCENC  =        32.79304533
  PAW double counting   =      2525.90626659    -2491.32590883
  entropy T*S    EENTRO =        -0.00000030
  eigenvalues    EBANDS =      -403.61978019
  atomic energy  EATOM  =      1786.80109851
  ---------------------------------------------------
  free energy    TOTEN  =       -15.04128331 eV

  energy without entropy =      -15.04128301  energy(sigma->0) =      -15.04128316


--------------------------------------------------------------------------------------------------------




----------------------------------------- Iteration    1(  23)  ---------------------------------------


    POTLOK:  cpu time   10.19: real time   10.51
    SETDIJ:  cpu time    0.04: real time    0.04
     EDDAV:  cpu time    5.12: real time    5.13
       DOS:  cpu time    0.01: real time    0.01
    CHARGE:  cpu time    0.39: real time    0.39
    MIXING:  cpu time    0.01: real time    0.01
    --------------------------------------------
      LOOP:  cpu time   15.76: real time   16.35

 eigenvalue-minimisations  :   988
 total energy-change (2. order) : 0.1841530E-04  (-0.7155676E-06)
 number of electron      23.9999999 magnetization       0.0000789
 augmentation part        1.8480375 magnetization       0.0000798

 Broyden mixing:
  rms(total) = 0.62066E-03    rms(broyden)= 0.62066E-03
  rms(prec ) = 0.62789E-03
  weight for this iteration     100.00

 eigenvalues of (default mixing * dielectric matrix)
  average eigenvalue GAMMA=   2.9336
 20.0597  9.9667  5.4935  2.7666  2.1180  2.0316  1.4039  1.4039  1.1412  0.9416
  0.8005  0.7164  0.7164  0.6789  0.6789  0.6165  0.6351  0.6351

 Free energy of the ion-electron system (eV)
  ---------------------------------------------------
  alpha Z        PSCENC =        18.95842417
  Ewald energy   TEWEN  =     10665.25335278
  -1/2 Hartree   DENC   =    -12149.81447831
  -exchange  EXHF       =         0.00000000
  -V(xc)+E(xc)   XCENC  =        32.79315801
  PAW double counting   =      2525.91257331    -2491.33161491
  entropy T*S    EENTRO =        -0.00000030
  eigenvalues    EBANDS =      -403.61377816
  atomic energy  EATOM  =      1786.80109851
  ---------------------------------------------------
  free energy    TOTEN  =       -15.04126490 eV

  energy without entropy =      -15.04126460  energy(sigma->0) =      -15.04126475


--------------------------------------------------------------------------------------------------------




----------------------------------------- Iteration    1(  24)  ---------------------------------------


    POTLOK:  cpu time    9.95: real time   10.05
    SETDIJ:  cpu time    0.03: real time    0.03
     EDDAV:  cpu time    7.13: real time    7.22
       DOS:  cpu time    0.02: real time    0.01
    CHARGE:  cpu time    0.56: real time    0.56
    MIXING:  cpu time    0.03: real time    0.03
    --------------------------------------------
      LOOP:  cpu time   17.72: real time   18.06

 eigenvalue-minimisations  :   988
 total energy-change (2. order) :-0.5061836E-04  (-0.2193579E-06)
 number of electron      23.9999999 magnetization       0.0000108
 augmentation part        1.8479424 magnetization       0.0000125

 Broyden mixing:
  rms(total) = 0.24315E-03    rms(broyden)= 0.24315E-03
  rms(prec ) = 0.25032E-03
  weight for this iteration     100.00

 eigenvalues of (default mixing * dielectric matrix)
  average eigenvalue GAMMA=   2.8788
 20.0917  9.9891  5.5023  2.8215  2.2571  2.2571  1.6378  1.6378  1.0625  1.0625
  0.9063  0.7863  0.7638  0.6951  0.6951  0.6435  0.6435  0.6221  0.6221

 Free energy of the ion-electron system (eV)
  ---------------------------------------------------
  alpha Z        PSCENC =        18.95842417
  Ewald energy   TEWEN  =     10665.25335278
  -1/2 Hartree   DENC   =    -12149.82175781
  -exchange  EXHF       =         0.00000000
  -V(xc)+E(xc)   XCENC  =        32.79324008
  PAW double counting   =      2525.84508963    -2491.26402203
  entropy T*S    EENTRO =        -0.00000029
  eigenvalues    EBANDS =      -403.60674055
  atomic energy  EATOM  =      1786.80109851
  ---------------------------------------------------
  free energy    TOTEN  =       -15.04131551 eV

  energy without entropy =      -15.04131522  energy(sigma->0) =      -15.04131537


--------------------------------------------------------------------------------------------------------




----------------------------------------- Iteration    1(  25)  ---------------------------------------


    POTLOK:  cpu time    9.20: real time    9.30
    SETDIJ:  cpu time    0.04: real time    0.03
     EDDAV:  cpu time    5.53: real time    5.58
       DOS:  cpu time    0.01: real time    0.01
    CHARGE:  cpu time    0.40: real time    0.40
    MIXING:  cpu time    0.02: real time    0.01
    --------------------------------------------
      LOOP:  cpu time   15.19: real time   19.84

 eigenvalue-minimisations  :   976
 total energy-change (2. order) : 0.7846140E-06  (-0.1446707E-06)
 number of electron      23.9999999 magnetization       0.0000073
 augmentation part        1.8479816 magnetization       0.0000088

 Broyden mixing:
  rms(total) = 0.85388E-04    rms(broyden)= 0.85388E-04
  rms(prec ) = 0.95051E-04
  weight for this iteration     100.00

 eigenvalues of (default mixing * dielectric matrix)
  average eigenvalue GAMMA=   2.7742
 20.0935  9.9905  5.5051  2.8217  2.2440  2.2440  1.8026  1.4790  1.0770  1.0770
  0.9826  0.8256  0.7339  0.7339  0.6777  0.6777  0.6532  0.6532  0.6070  0.6053

 Free energy of the ion-electron system (eV)
  ---------------------------------------------------
  alpha Z        PSCENC =        18.95842417
  Ewald energy   TEWEN  =     10665.25335278
  -1/2 Hartree   DENC   =    -12149.82727963
  -exchange  EXHF       =         0.00000000
  -V(xc)+E(xc)   XCENC  =        32.79326138
  PAW double counting   =      2525.79555966    -2491.21477021
  entropy T*S    EENTRO =        -0.00000029
  eigenvalues    EBANDS =      -403.60096110
  atomic energy  EATOM  =      1786.80109851
  ---------------------------------------------------
  free energy    TOTEN  =       -15.04131473 eV

  energy without entropy =      -15.04131444  energy(sigma->0) =      -15.04131458


--------------------------------------------------------------------------------------------------------




----------------------------------------- Iteration    1(  26)  ---------------------------------------


    POTLOK:  cpu time    9.75: real time   10.06
    SETDIJ:  cpu time    0.04: real time    0.04
     EDDAV:  cpu time    4.43: real time    4.43
       DOS:  cpu time    0.01: real time    0.01
    CHARGE:  cpu time    0.70: real time    0.71
    MIXING:  cpu time    0.04: real time    0.04
    --------------------------------------------
      LOOP:  cpu time   14.96: real time   15.45

 eigenvalue-minimisations  :   848
 total energy-change (2. order) :-0.4452133E-05  (-0.4202724E-07)
 number of electron      23.9999999 magnetization       0.0000031
 augmentation part        1.8479847 magnetization       0.0000035

 Broyden mixing:
  rms(total) = 0.46784E-04    rms(broyden)= 0.46784E-04
  rms(prec ) = 0.58517E-04
  weight for this iteration     100.00

 eigenvalues of (default mixing * dielectric matrix)
  average eigenvalue GAMMA=   2.7269
 20.0947  9.9909  5.5078  2.8438  2.2653  2.2653  1.8592  1.5841  1.5841  1.0431
  1.0431  1.0183  0.8455  0.7311  0.7311  0.6719  0.6719  0.6501  0.6463  0.6162
  0.6007

 Free energy of the ion-electron system (eV)
  ---------------------------------------------------
  alpha Z        PSCENC =        18.95842417
  Ewald energy   TEWEN  =     10665.25335278
  -1/2 Hartree   DENC   =    -12149.83230934
  -exchange  EXHF       =         0.00000000
  -V(xc)+E(xc)   XCENC  =        32.79329569
[...]
     13      -2.0488      0.00000
     14      -1.4600      0.00000
     15      -1.0119      0.00000
     16      -0.9510      0.00000
     17       0.2289      0.00000
     18       0.9684      0.00000
     19       1.0590      0.00000
     20       1.6431      0.00000

 k-point   7 :       0.2222    0.1111    0.0000
  band No.  band energies     occupation 
      1     -41.5288      1.00000
      2     -41.4769      1.00000
      3     -41.4403      1.00000
      4     -16.8919      1.00000
      5     -16.2184      1.00000
      6      -8.2823      1.00000
      7      -7.7859      1.00000
      8      -7.1470      1.00000
      9      -6.3287      1.00000
     10      -5.2391      1.00000
     11      -4.8086      1.00000
     12      -4.2324      1.00000
     13      -2.0504      0.00000
     14      -1.6608      0.00000
     15      -1.0479      0.00000
     16      -0.7204      0.00000
     17       0.6830      0.00000
     18       1.8436      0.00000
     19       1.9358      0.00000
     20       2.4330      0.00000

 k-point   8 :       0.3333    0.1111    0.0000
  band No.  band energies     occupation 
      1     -41.5818      1.00000
      2     -41.4657      1.00000
      3     -41.4590      1.00000
      4     -16.2947      1.00000
      5     -15.9416      1.00000
      6      -8.9907      1.00000
      7      -8.0083      1.00000
      8      -7.4650      1.00000
      9      -6.4868      1.00000
     10      -5.3839      1.00000
     11      -5.2646      1.00000
     12      -4.0797      1.00000
     13      -2.0525      0.00000
     14      -1.3407      0.00000
     15      -0.8989      0.00000
     16      -0.1167      0.00000
     17       0.7848      0.00000
     18       2.2781      0.00000
     19       3.1301      0.00000
     20       3.2259      0.00000

 k-point   9 :       0.4444    0.1111    0.0000
  band No.  band energies     occupation 
      1     -41.6026      1.00000
      2     -41.4663      1.00000
      3     -41.4612      1.00000
      4     -16.0206      1.00000
      5     -15.8200      1.00000
      6      -9.3649      1.00000
      7      -8.3559      1.00000
      8      -7.3813      1.00000
      9      -6.4890      1.00000
     10      -5.4780      1.00000
     11      -5.3450      1.00000
     12      -3.8867      1.00000
     13      -2.0552      0.00000
     14      -1.1752      0.00000
     15      -0.6380      0.00000
     16       0.3109      0.00000
     17       0.5934      0.00000
     18       1.3334      0.00000
     19       4.1580      0.00000
     20       4.3898      0.00000

 k-point  10 :       0.2222    0.2222    0.0000
  band No.  band energies     occupation 
      1     -41.5629      1.00000
      2     -41.4730      1.00000
      3     -41.4665      1.00000
      4     -16.3521      1.00000
      5     -15.9612      1.00000
      6      -8.5838      1.00000
      7      -7.8335      1.00000
      8      -7.4819      1.00000
      9      -6.7431      1.00000
     10      -6.0264      1.00000
     11      -5.0502      1.00000
     12      -4.0529      1.00000
     13      -2.0518      0.00000
     14      -1.5118      0.00000
     15      -0.8639      0.00000
     16      -0.5450      0.00000
     17       0.9413      0.00000
     18       2.9218      0.00000
     19       3.0168      0.00000
     20       3.0939      0.00000

 k-point  11 :       0.3333    0.2222    0.0000
  band No.  band energies     occupation 
      1     -41.5793      1.00000
      2     -41.5000      1.00000
      3     -41.4597      1.00000
      4     -15.9465      1.00000
      5     -15.7708      1.00000
      6      -8.8657      1.00000
      7      -8.4135      1.00000
      8      -7.2861      1.00000
      9      -6.6423      1.00000
     10      -6.5577      1.00000
     11      -5.4868      1.00000
     12      -3.7347      1.00000
     13      -2.0574      0.00000
     14      -1.4568      0.00000
     15      -0.4493      0.00000
     16      -0.3730      0.00000
     17       1.0999      0.00000
     18       2.1670      0.00000
     19       4.0636      0.00000
     20       4.3400      0.00000

 k-point  12 :       0.3333    0.3333    0.0000
  band No.  band energies     occupation 
      1     -41.5578      1.00000
      2     -41.5368      1.00000
      3     -41.4573      1.00000
      4     -15.8033      1.00000
      5     -15.6975      1.00000
      6      -8.6043      1.00000
      7      -8.4996      1.00000
      8      -7.5666      1.00000
      9      -7.0170      1.00000
     10      -6.5596      1.00000
     11      -5.7063      1.00000
     12      -3.4217      1.00000
     13      -2.0881      0.00000
     14      -1.8400      0.00000
     15      -0.5589      0.00000
     16      -0.0135      0.00000
     17       1.3874      0.00000
     18       2.3957      0.00000
     19       3.1025      0.00000
     20       5.2090      0.00000


--------------------------------------------------------------------------------------------------------


 soft charge-density along one line, spin component           1
         0         1         2         3         4         5         6         7         8         9
 total charge-density along one line
 
 soft charge-density along one line, spin component           2
         0         1         2         3         4         5         6         7         8         9
 total charge-density along one line
 
 pseudopotential strength for first ion, spin component:           1
-32.231   0.000   0.000  11.771   0.000   0.000   0.000   0.000
  0.000 -32.208   0.000   0.000  11.756   0.000   0.000   0.000
  0.000   0.000 -32.231   0.000   0.000  11.771   0.010   0.000
 11.771   0.000   0.000   4.497   0.000   0.000   0.000   0.000
  0.000  11.756   0.000   0.000   4.500   0.000   0.000   0.000
  0.000   0.000  11.771   0.000   0.000   4.497  -0.007   0.000
  0.000   0.000   0.010   0.000   0.000  -0.007  -4.601   0.000
  0.000   0.000   0.000   0.000   0.000   0.000   0.000  -4.599
  0.000   0.000   0.000   0.000   0.000   0.000   0.000   0.000
  0.000   0.000   0.000   0.000   0.000   0.000   0.000   0.000
  0.010   0.000   0.000  -0.007   0.000   0.000   0.000   0.000
  0.000   0.000   0.012   0.000   0.000  -0.008  -5.284   0.000
  0.000   0.000   0.000   0.000   0.000   0.000   0.000  -5.282
  0.000   0.000   0.000   0.000   0.000   0.000   0.000   0.000
  0.000   0.000   0.000   0.000   0.000   0.000   0.000   0.000
  0.012   0.000   0.000  -0.008   0.000   0.000   0.000   0.000
  0.000   0.000   0.000   0.000   0.000   0.000   0.000   0.000
  0.000   0.000   0.000   0.000   0.000   0.000   0.000   0.000
 pseudopotential strength for first ion, spin component:           2
-32.231   0.000   0.000  11.771   0.000   0.000   0.000   0.000
  0.000 -32.208   0.000   0.000  11.756   0.000   0.000   0.000
  0.000   0.000 -32.231   0.000   0.000  11.771   0.010   0.000
 11.771   0.000   0.000   4.497   0.000   0.000   0.000   0.000
  0.000  11.756   0.000   0.000   4.500   0.000   0.000   0.000
  0.000   0.000  11.771   0.000   0.000   4.497  -0.007   0.000
  0.000   0.000   0.010   0.000   0.000  -0.007  -4.601   0.000
  0.000   0.000   0.000   0.000   0.000   0.000   0.000  -4.599
  0.000   0.000   0.000   0.000   0.000   0.000   0.000   0.000
  0.000   0.000   0.000   0.000   0.000   0.000   0.000   0.000
  0.010   0.000   0.000  -0.007   0.000   0.000   0.000   0.000
  0.000   0.000   0.012   0.000   0.000  -0.008  -5.284   0.000
  0.000   0.000   0.000   0.000   0.000   0.000   0.000  -5.282
  0.000   0.000   0.000   0.000   0.000   0.000   0.000   0.000
  0.000   0.000   0.000   0.000   0.000   0.000   0.000   0.000
  0.012   0.000   0.000  -0.008   0.000   0.000   0.000   0.000
  0.000   0.000   0.000   0.000   0.000   0.000   0.000   0.000
  0.000   0.000   0.000   0.000   0.000   0.000   0.000   0.000
 total augmentation occupancy for first ion, spin component:           1
  1.998   0.000   0.000  -0.005   0.000   0.000   0.000   0.000   0.000   0.000  -0.025   0.000   0.000   0.000   0.000   0.022
  0.000   1.998   0.000   0.000  -0.005   0.000   0.000   0.000   0.000   0.000   0.000   0.000   0.000   0.000   0.000   0.000
  0.000   0.000   1.998   0.000   0.000  -0.005  -0.025   0.000   0.000   0.000   0.000   0.022   0.000   0.000   0.000   0.000
 -0.005   0.000   0.000   0.183   0.000   0.000   0.000   0.000   0.000   0.000  -0.260   0.000   0.000   0.000   0.000   0.184
  0.000  -0.005   0.000   0.000   0.223   0.000   0.000   0.000   0.000   0.000   0.000   0.000   0.000   0.000   0.000   0.000
  0.000   0.000  -0.005   0.000   0.000   0.183  -0.260   0.000   0.000   0.000   0.000   0.184   0.000   0.000   0.000   0.000
  0.000   0.000  -0.025   0.000   0.000  -0.260   5.348   0.000   0.000   0.000   0.000  -2.901   0.000   0.000   0.000   0.000
  0.000   0.000   0.000   0.000   0.000   0.000   0.000   7.706   0.000   0.000   0.000   0.000  -4.571   0.000   0.000   0.000
  0.000   0.000   0.000   0.000   0.000   0.000   0.000   0.000   4.553   0.000   0.000   0.000   0.000  -2.290   0.000   0.000
  0.000   0.000   0.000   0.000   0.000   0.000   0.000   0.000   0.000   7.706   0.000   0.000   0.000   0.000  -4.571   0.000
 -0.025   0.000   0.000  -0.260   0.000   0.000   0.000   0.000   0.000   0.000   5.348   0.000   0.000   0.000   0.000  -2.901
  0.000   0.000   0.022   0.000   0.000   0.184  -2.901   0.000   0.000   0.000   0.000   1.709   0.000   0.000   0.000   0.000
  0.000   0.000   0.000   0.000   0.000   0.000   0.000  -4.571   0.000   0.000   0.000   0.000   2.801   0.000   0.000   0.000
  0.000   0.000   0.000   0.000   0.000   0.000   0.000   0.000  -2.290   0.000   0.000   0.000   0.000   1.290   0.000   0.000
  0.000   0.000   0.000   0.000   0.000   0.000   0.000   0.000   0.000  -4.571   0.000   0.000   0.000   0.000   2.801   0.000
  0.022   0.000   0.000   0.184   0.000   0.000   0.000   0.000   0.000   0.000  -2.901   0.000   0.000   0.000   0.000   1.709
  0.000   0.000   0.000   0.000   0.000   0.000   0.000   0.000   0.252   0.000   0.000   0.000   0.000  -0.105   0.000   0.000
  0.000   0.000   0.000   0.000   0.000   0.000   0.000   0.000  -0.003   0.000   0.000   0.000   0.000  -0.016   0.000   0.000
 total augmentation occupancy for first ion, spin component:           2
  0.000   0.000   0.000   0.000   0.000   0.000   0.000   0.000   0.000   0.000   0.000   0.000   0.000   0.000   0.000   0.000
  0.000   0.000   0.000   0.000   0.000   0.000   0.000   0.000   0.000   0.000   0.000   0.000   0.000   0.000   0.000   0.000
  0.000   0.000   0.000   0.000   0.000   0.000   0.000   0.000   0.000   0.000   0.000   0.000   0.000   0.000   0.000   0.000
  0.000   0.000   0.000   0.000   0.000   0.000   0.000   0.000   0.000   0.000   0.000   0.000   0.000   0.000   0.000   0.000
  0.000   0.000   0.000   0.000   0.000   0.000   0.000   0.000   0.000   0.000   0.000   0.000   0.000   0.000   0.000   0.000
  0.000   0.000   0.000   0.000   0.000   0.000   0.000   0.000   0.000   0.000   0.000   0.000   0.000   0.000   0.000   0.000
  0.000   0.000   0.000   0.000   0.000   0.000   0.000   0.000   0.000   0.000   0.000   0.000   0.000   0.000   0.000   0.000
  0.000   0.000   0.000   0.000   0.000   0.000   0.000   0.000   0.000   0.000   0.000   0.000   0.000   0.000   0.000   0.000
  0.000   0.000   0.000   0.000   0.000   0.000   0.000   0.000   0.000   0.000   0.000   0.000   0.000   0.000   0.000   0.000
  0.000   0.000   0.000   0.000   0.000   0.000   0.000   0.000   0.000   0.000   0.000   0.000   0.000   0.000   0.000   0.000
  0.000   0.000   0.000   0.000   0.000   0.000   0.000   0.000   0.000   0.000   0.000   0.000   0.000   0.000   0.000   0.000
  0.000   0.000   0.000   0.000   0.000   0.000   0.000   0.000   0.000   0.000   0.000   0.000   0.000   0.000   0.000   0.000
  0.000   0.000   0.000   0.000   0.000   0.000   0.000   0.000   0.000   0.000   0.000   0.000   0.000   0.000   0.000   0.000
  0.000   0.000   0.000   0.000   0.000   0.000   0.000   0.000   0.000   0.000   0.000   0.000   0.000   0.000   0.000   0.000
  0.000   0.000   0.000   0.000   0.000   0.000   0.000   0.000   0.000   0.000   0.000   0.000   0.000   0.000   0.000   0.000
  0.000   0.000   0.000   0.000   0.000   0.000   0.000   0.000   0.000   0.000   0.000   0.000   0.000   0.000   0.000   0.000
  0.000   0.000   0.000   0.000   0.000   0.000   0.000   0.000   0.000   0.000   0.000   0.000   0.000   0.000   0.000   0.000
  0.000   0.000   0.000   0.000   0.000   0.000   0.000   0.000   0.000   0.000   0.000   0.000   0.000   0.000   0.000   0.000


------------------------ aborting loop because EDIFF is reached ----------------------------------------


 


 total charge     
 
# of ion     s       p       d       tot
----------------------------------------
  1        0.272   6.261   3.377   9.910
  2        1.505   2.389   0.063   3.957
  3        1.505   2.388   0.063   3.957
------------------------------------------------
tot        3.282  11.038   3.504  17.824
 


 magnetization (x)
 
# of ion     s       p       d       tot
----------------------------------------
  1        0.000   0.000   0.000   0.000
  2        0.000   0.000   0.000   0.000
  3        0.000   0.000   0.000   0.000
------------------------------------------------
tot        0.000   0.000   0.000   0.000
 
    CHARGE:  cpu time    0.53: real time    0.53
    FORLOC:  cpu time    0.03: real time    0.03
    FORNL :  cpu time    0.88: real time    0.88
    STRESS:  cpu time    0.90: real time    0.91
    FORCOR:  cpu time    9.58: real time    9.67
    FORHAR:  cpu time    0.06: real time    0.06
    MIXING:  cpu time    0.04: real time    0.04

  FORCE on cell =-STRESS in cart. coord.  units (eV):
  Direction    XX          YY          ZZ          XY          YZ          ZX
  --------------------------------------------------------------------------------------
  Alpha Z    18.99028    18.99028    18.99028
  Ewald   11766.87513 11766.87375-12850.21176     0.00000     0.00000     0.00000
  Hartree 12027.17485 12027.17483-11886.06011     0.00000     0.00000     0.00000
  E(xc)     -99.30703   -99.30699   -98.82878     0.00000     0.00000     0.00000
  Local  -24145.65963-24145.65852 24380.79937     0.00000     0.00000     0.00000
  n-local    88.19998    95.64601    97.47709     1.21061     0.00000     0.00018
  augment    55.70890    55.70888    54.93404     0.00000     0.00000     0.00000
  Kinetic   278.38471   290.20405   282.88113     5.93986     0.00000    -0.00037
  Fock        0.00000     0.00000     0.00000     0.00000     0.00000     0.00000
  -------------------------------------------------------------------------------------
  Total      -0.00025    -0.00025    -0.01874     0.00000     0.00000     0.00000
  in kB      -0.00121    -0.00121    -0.08945     0.00000     0.00000     0.00000
  external pressure =       -0.03 kB  Pullay stress =        0.00 kB


 VOLUME and BASIS-vectors are now :
 -----------------------------------------------------------------------------
  energy-cutoff  :      500.00
  volume of cell :      335.62
      direct lattice vectors                 reciprocal lattice vectors
     1.662139148 -2.878908317  0.000000000     0.300817173 -0.173676945  0.000000000
     1.662139148  2.878908317  0.000000000     0.300817173  0.173676945  0.000000000
     0.000000000  0.000000000 35.068951000     0.000000000  0.000000000  0.028515253

  length of vectors
     3.324277312  3.324277312 35.068951000     0.347353786  0.347353786  0.028515253


 FORCES acting on ions
    electron-ion (+dipol)            ewald-force                    non-local-force                 convergence-correction
 -----------------------------------------------------------------------------------------------
   0.337E-07 0.890E-03 0.344E-03   0.467E-13 0.279E-03 0.191E-02   0.139E-16 0.222E-15 0.108E-18   -.283E-14 -.134E-09 -.204E-07
   0.246E-06 -.725E-03 0.843E+03   -.269E-13 -.139E-03 -.845E+03   -.173E-17 -.173E-17 0.262E+01   0.794E-14 -.240E-10 -.554E-03
   0.349E-06 -.750E-03 -.843E+03   -.458E-14 -.139E-03 0.845E+03   0.867E-18 -.520E-17 -.262E+01   0.666E-14 -.205E-10 0.554E-03
 -----------------------------------------------------------------------------------------------
   0.628E-06 -.585E-03 0.242E-01   0.152E-13 -.991E-14 0.000E+00   0.130E-16 0.215E-15 0.000E+00   0.118E-13 -.179E-09 -.342E-07
 
 
 POSITION                                       TOTAL-FORCE (eV/Angst)
 -----------------------------------------------------------------------------------
      1.66214     -0.95964      3.76725         0.000000      0.000000      0.000000
      1.66214      0.95964      2.08515         0.000000      0.000000      0.000154
      1.66214      0.95964      5.44931         0.000000      0.000000     -0.000154
 -----------------------------------------------------------------------------------
    total drift:                                0.000001     -0.000585      0.024192


--------------------------------------------------------------------------------------------------------



  FREE ENERGIE OF THE ION-ELECTRON SYSTEM (eV)
  ---------------------------------------------------
  free  energy   TOTEN  =       -15.04128114 eV

  energy  without entropy=      -15.04128086  energy(sigma->0) =      -15.04128100
 
 d Force = 0.2952234E-06[-0.598E-07, 0.650E-06]  d Energy =-0.1926650E-04 0.196E-04
 d Force = 0.3273352E+00[ 0.327E+00, 0.327E+00]  d Ewald  =-0.1435211E+01 0.176E+01


--------------------------------------------------------------------------------------------------------


    POTLOK:  cpu time    9.84: real time   10.70


--------------------------------------------------------------------------------------------------------


 Quasi-Newton relaxation of ions (Broydens 2nd method)
  g(Force)  = 0.230E-08   g(Stress)= 0.207E-08

 retain information from N=  1 steps
 eigenvalues of (default step * inverse Hessian matrix)
  average eigenvalue of G=   1.0624
 eigenvalue spectrum of G is  1.0624


--------------------------------------------------------------------------------------------------------


  
 reached required accuracy - stopping structural energy minimisation
     LOOP+:  cpu time  486.23: real time  511.23
    4ORBIT:  cpu time    0.00: real time    0.00
 


 total charge     
 
# of ion     s       p       d       tot
----------------------------------------
  1        0.272   6.261   3.377   9.910
  2        1.505   2.389   0.063   3.957
  3        1.505   2.388   0.063   3.957
------------------------------------------------
tot        3.282  11.038   3.504  17.824
 


 magnetization (x)
 
# of ion     s       p       d       tot
----------------------------------------
  1        0.000   0.000   0.000   0.000
  2        0.000   0.000   0.000   0.000
  3        0.000   0.000   0.000   0.000
------------------------------------------------
tot        0.000   0.000   0.000   0.000
 

 total amount of memory used by VASP on root node    54282. kBytes
========================================================================

   base      :      30000. kBytes
   nonl-proj :       7596. kBytes
   fftplans  :       3585. kBytes
   grid      :       8870. kBytes
   one-center:         31. kBytes
   wavefun   :       4200. kBytes
 
  
  
 General timing and accounting informations for this job:
 ========================================================
  
                  Total CPU time used (sec):     2391.297
                            User time (sec):     2380.921
                          System time (sec):       10.377
                         Elapsed time (sec):     2503.477
  
                   Maximum memory used (kb):      205692.
                   Average memory used (kb):           0.
  
                          Minor page faults:      1520129
                          Major page faults:            5
                 Voluntary context switches:         3301
