  150  150    1    2
  0.4150140E+02  0.1595158E-08  0.1595158E-08  0.2824984E-08  0.5000000E-15
  1.000000000000000E-004
  CAR 
 MoSSe-WSSe static SCF calculation       
   1200      8    800
 
  0.0000000E+00  0.0000000E+00  0.0000000E+00  0.2040816E-01
    1      -38.762246    -38.762246   1.000000   1.000000
    2      -38.762246    -38.762246   1.000000   1.000000
    3      -38.762246    -38.762246   1.000000   1.000000
    4      -38.762246    -38.762246   1.000000   1.000000
    5      -38.762239    -38.762239   1.000000   1.000000
    6      -38.762239    -38.762239   1.000000   1.000000
    7      -38.755027    -38.755027   1.000000   1.000000
    8      -38.755027    -38.755027   1.000000   1.000000
    9      -38.755027    -38.755027   1.000000   1.000000
   10      -38.755027    -38.755027   1.000000   1.000000
   11      -38.755020    -38.755020   1.000000   1.000000
   12      -38.755020    -38.755020   1.000000   1.000000
   13      -38.699888    -38.699888   1.000000   1.000000
   14      -38.699888    -38.699888   1.000000   1.000000
   15      -38.699881    -38.699881   1.000000   1.000000
   16      -38.699881    -38.699881   1.000000   1.000000
   17      -38.699881    -38.699881   1.000000   1.000000
   18      -38.699881    -38.699881   1.000000   1.000000
   19      -38.663921    -38.663921   1.000000   1.000000
   20      -38.642917    -38.642917   1.000000   1.000000
   21      -38.642917    -38.642917   1.000000   1.000000
   22      -38.642917    -38.642917   1.000000   1.000000
   23      -38.642917    -38.642917   1.000000   1.000000
   24      -38.642917    -38.642917   1.000000   1.000000
   25      -38.642917    -38.642917   1.000000   1.000000
   26      -38.615872    -38.615872   1.000000   1.000000
   27      -38.615872    -38.615872   1.000000   1.000000
   28      -38.615865    -38.615865   1.000000   1.000000
   29      -38.615865    -38.615865   1.000000   1.000000
   30      -38.615865    -38.615865   1.000000   1.000000
   31      -38.615865    -38.615865   1.000000   1.000000
   32      -38.615291    -38.615291   1.000000   1.000000
   33      -38.615291    -38.615291   1.000000   1.000000
   34      -38.615291    -38.615291   1.000000   1.000000
   35      -38.615291    -38.615291   1.000000   1.000000
   36      -38.615291    -38.615291   1.000000   1.000000
   37      -38.615291    -38.615291   1.000000   1.000000
   38      -38.608736    -38.608736   1.000000   1.000000
   39      -38.608736    -38.608736   1.000000   1.000000
   40      -38.608736    -38.608736   1.000000   1.000000
   41      -38.608736    -38.608736   1.000000   1.000000
   42      -38.608736    -38.608736   1.000000   1.000000
   43      -38.608736    -38.608736   1.000000   1.000000
   44      -38.598182    -38.598182   1.000000   1.000000
   45      -38.598182    -38.598182   1.000000   1.000000
   46      -38.598182    -38.598182   1.000000   1.000000
   47      -38.598182    -38.598182   1.000000   1.000000
   48      -38.598182    -38.598182   1.000000   1.000000
   49      -38.598182    -38.598182   1.000000   1.000000
   50      -38.583522    -38.583522   1.000000   1.000000
   51      -38.583522    -38.583522   1.000000   1.000000
   52      -38.583522    -38.583522   1.000000   1.000000
   53      -38.583522    -38.583522   1.000000   1.000000
   54      -38.583515    -38.583515   1.000000   1.000000
   55      -38.583515    -38.583515   1.000000   1.000000
   56      -38.560718    -38.560718   1.000000   1.000000
   57      -38.560718    -38.560718   1.000000   1.000000
   58      -38.560718    -38.560718   1.000000   1.000000
   59      -38.560718    -38.560718   1.000000   1.000000
   60      -38.560711    -38.560711   1.000000   1.000000
   61      -38.560711    -38.560711   1.000000   1.000000
   62      -38.539320    -38.539319   1.000000   1.000000
   63      -38.539320    -38.539319   1.000000   1.000000
   64      -38.539313    -38.539313   1.000000   1.000000
   65      -38.539313    -38.539313   1.000000   1.000000
   66      -38.539313    -38.539313   1.000000   1.000000
   67      -38.539313    -38.539313   1.000000   1.000000
   68      -38.496703    -38.496703   1.000000   1.000000
   69      -38.496703    -38.496703   1.000000   1.000000
   70      -38.496697    -38.496697   1.000000   1.000000
   71      -38.496697    -38.496697   1.000000   1.000000
   72      -38.496697    -38.496697   1.000000   1.000000
   73      -38.496697    -38.496697   1.000000   1.000000
   74      -38.470180    -38.470180   1.000000   1.000000
   75      -38.470171    -38.470171   1.000000   1.000000
   76      -35.826318    -35.826317   1.000000   1.000000
   77      -35.826318    -35.826317   1.000000   1.000000
   78      -35.826318    -35.826317   1.000000   1.000000
   79      -35.826318    -35.826317   1.000000   1.000000
   80      -35.826310    -35.826310   1.000000   1.000000
   81      -35.826310    -35.826310   1.000000   1.000000
   82      -35.818276    -35.818275   1.000000   1.000000
   83      -35.818276    -35.818275   1.000000   1.000000
   84      -35.818276    -35.818275   1.000000   1.000000
   85      -35.818276    -35.818275   1.000000   1.000000
   86      -35.818269    -35.818268   1.000000   1.000000
   87      -35.818269    -35.818268   1.000000   1.000000
   88      -35.757276    -35.757275   1.000000   1.000000
   89      -35.757276    -35.757275   1.000000   1.000000
   90      -35.757268    -35.757268   1.000000   1.000000
   91      -35.757268    -35.757268   1.000000   1.000000
   92      -35.757268    -35.757268   1.000000   1.000000
   93      -35.757268    -35.757268   1.000000   1.000000
   94      -35.753000    -35.753000   1.000000   1.000000
   95      -35.727653    -35.727653   1.000000   1.000000
   96      -35.727653    -35.727653   1.000000   1.000000
   97      -35.727653    -35.727653   1.000000   1.000000
   98      -35.727653    -35.727653   1.000000   1.000000
   99      -35.727653    -35.727653   1.000000   1.000000
  100      -35.727653    -35.727653   1.000000   1.000000
  101      -35.694298    -35.694298   1.000000   1.000000
  102      -35.694298    -35.694298   1.000000   1.000000
  103      -35.694298    -35.694298   1.000000   1.000000
  104      -35.694298    -35.694298   1.000000   1.000000
  105      -35.694298    -35.694297   1.000000   1.000000
  106      -35.694298    -35.694297   1.000000   1.000000
  107      -35.686383    -35.686382   1.000000   1.000000
  108      -35.686383    -35.686382   1.000000   1.000000
  109      -35.686382    -35.686382   1.000000   1.000000
  110      -35.686382    -35.686382   1.000000   1.000000
  111      -35.686382    -35.686382   1.000000   1.000000
  112      -35.686382    -35.686382   1.000000   1.000000
  113      -35.673647    -35.673647   1.000000   1.000000
  114      -35.673647    -35.673647   1.000000   1.000000
  115      -35.673647    -35.673646   1.000000   1.000000
  116      -35.673647    -35.673646   1.000000   1.000000
  117      -35.673647    -35.673646   1.000000   1.000000
  118      -35.673647    -35.673646   1.000000   1.000000
  119      -35.662341    -35.662341   1.000000   1.000000
  120      -35.662341    -35.662341   1.000000   1.000000
  121      -35.662334    -35.662334   1.000000   1.000000
  122      -35.662334    -35.662334   1.000000   1.000000
  123      -35.662334    -35.662334   1.000000   1.000000
  124      -35.662334    -35.662334   1.000000   1.000000
  125      -35.628454    -35.628453   1.000000   1.000000
  126      -35.628454    -35.628453   1.000000   1.000000
  127      -35.628454    -35.628453   1.000000   1.000000
  128      -35.628454    -35.628453   1.000000   1.000000
  129      -35.628447    -35.628446   1.000000   1.000000
  130      -35.628447    -35.628446   1.000000   1.000000
  131      -35.601718    -35.601718   1.000000   1.000000
  132      -35.601718    -35.601718   1.000000   1.000000
  133      -35.601718    -35.601718   1.000000   1.000000
  134      -35.601718    -35.601718   1.000000   1.000000
  135      -35.601711    -35.601711   1.000000   1.000000
  136      -35.601711    -35.601711   1.000000   1.000000
  137      -35.577703    -35.577703   1.000000   1.000000
  138      -35.577703    -35.577703   1.000000   1.000000
  139      -35.577697    -35.577696   1.000000   1.000000
  140      -35.577697    -35.577696   1.000000   1.000000
  141      -35.577697    -35.577696   1.000000   1.000000
  142      -35.577697    -35.577696   1.000000   1.000000
  143      -35.531485    -35.531485   1.000000   1.000000
  144      -35.531485    -35.531485   1.000000   1.000000
  145      -35.531478    -35.531478   1.000000   1.000000
  146      -35.531478    -35.531478   1.000000   1.000000
  147      -35.531478    -35.531478   1.000000   1.000000
  148      -35.531478    -35.531478   1.000000   1.000000
  149      -35.502706    -35.502706   1.000000   1.000000
  150      -35.502697    -35.502697   1.000000   1.000000
  151      -15.435089    -15.435090   1.000000   1.000000
  152      -15.117718    -15.117719   1.000000   1.000000
  153      -14.805309    -14.805309   1.000000   1.000000
  154      -14.805309    -14.805309   1.000000   1.000000
  155      -14.805307    -14.805307   1.000000   1.000000
  156      -14.805307    -14.805307   1.000000   1.000000
  157      -14.805307    -14.805307   1.000000   1.000000
  158      -14.805307    -14.805307   1.000000   1.000000
  159      -14.541499    -14.541500   1.000000   1.000000
  160      -14.541499    -14.541500   1.000000   1.000000
  161      -14.541498    -14.541498   1.000000   1.000000
  162      -14.541498    -14.541498   1.000000   1.000000
  163      -14.541498    -14.541498   1.000000   1.000000
  164      -14.541498    -14.541498   1.000000   1.000000
  165      -13.959001    -13.959002   1.000000   1.000000
  166      -13.827495    -13.827496   1.000000   1.000000
  167      -13.800832    -13.800832   1.000000   1.000000
  168      -13.800832    -13.800832   1.000000   1.000000
  169      -13.800832    -13.800832   1.000000   1.000000
  170      -13.800832    -13.800832   1.000000   1.000000
  171      -13.800828    -13.800829   1.000000   1.000000
  172      -13.800828    -13.800829   1.000000   1.000000
  173      -13.665431    -13.665431   1.000000   1.000000
  174      -13.665431    -13.665431   1.000000   1.000000
  175      -13.665431    -13.665431   1.000000   1.000000
  176      -13.665431    -13.665431   1.000000   1.000000
  177      -13.665428    -13.665429   1.000000   1.000000
  178      -13.665428    -13.665429   1.000000   1.000000
  179      -13.630891    -13.630891   1.000000   1.000000
  180      -13.630891    -13.630891   1.000000   1.000000
  181      -13.630891    -13.630891   1.000000   1.000000
  182      -13.630891    -13.630891   1.000000   1.000000
  183      -13.630888    -13.630889   1.000000   1.000000
  184      -13.630888    -13.630889   1.000000   1.000000
  185      -13.534534    -13.534534   1.000000   1.000000
  186      -13.534534    -13.534534   1.000000   1.000000
  187      -13.534534    -13.534534   1.000000   1.000000
  188      -13.534534    -13.534534   1.000000   1.000000
  189      -13.534532    -13.534532   1.000000   1.000000
  190      -13.534532    -13.534532   1.000000   1.000000
  191      -13.493000    -13.493000   1.000000   1.000000
  192      -13.493000    -13.493000   1.000000   1.000000
  193      -13.492992    -13.492993   1.000000   1.000000
  194      -13.492992    -13.492993   1.000000   1.000000
  195      -13.492992    -13.492993   1.000000   1.000000
  196      -13.492992    -13.492993   1.000000   1.000000
  197      -13.356816    -13.356817   1.000000   1.000000
  198      -13.356816    -13.356817   1.000000   1.000000
  199      -13.356812    -13.356812   1.000000   1.000000
  200      -13.356812    -13.356812   1.000000   1.000000
  201      -13.356812    -13.356812   1.000000   1.000000
  202      -13.356812    -13.356812   1.000000   1.000000
  203      -13.209877    -13.209878   1.000000   1.000000
  204      -13.209877    -13.209878   1.000000   1.000000
  205      -13.209873    -13.209873   1.000000   1.000000
  206      -13.209873    -13.209873   1.000000   1.000000
  207      -13.209873    -13.209873   1.000000   1.000000
  208      -13.209873    -13.209873   1.000000   1.000000
  209      -13.093760    -13.093761   1.000000   1.000000
  210      -13.093760    -13.093761   1.000000   1.000000
  211      -13.093760    -13.093761   1.000000   1.000000
  212      -13.093760    -13.093761   1.000000   1.000000
  213      -13.093753    -13.093754   1.000000   1.000000
  214      -13.093753    -13.093754   1.000000   1.000000
  215      -13.079375    -13.079375   1.000000   1.000000
  216      -13.079375    -13.079375   1.000000   1.000000
  217      -13.079371    -13.079372   1.000000   1.000000
  218      -13.079371    -13.079372   1.000000   1.000000
  219      -13.079371    -13.079372   1.000000   1.000000
  220      -13.079371    -13.079372   1.000000   1.000000
  221      -13.000160    -13.000160   1.000000   1.000000
  222      -13.000160    -13.000160   1.000000   1.000000
  223      -13.000156    -13.000156   1.000000   1.000000
  224      -13.000156    -13.000156   1.000000   1.000000
  225      -13.000156    -13.000156   1.000000   1.000000
  226      -13.000156    -13.000156   1.000000   1.000000
  227      -12.959845    -12.959845   1.000000   1.000000
  228      -12.959845    -12.959845   1.000000   1.000000
  229      -12.959845    -12.959845   1.000000   1.000000
  230      -12.959845    -12.959845   1.000000   1.000000
  231      -12.959839    -12.959839   1.000000   1.000000
  232      -12.959839    -12.959839   1.000000   1.000000
  233      -12.928560    -12.928560   1.000000   1.000000
  234      -12.928560    -12.928560   1.000000   1.000000
  235      -12.928559    -12.928559   1.000000   1.000000
  236      -12.928559    -12.928559   1.000000   1.000000
  237      -12.928559    -12.928559   1.000000   1.000000
  238      -12.928559    -12.928559   1.000000   1.000000
  239      -12.856862    -12.856862   1.000000   1.000000
  240      -12.856862    -12.856862   1.000000   1.000000
  241      -12.856862    -12.856862   1.000000   1.000000
  242      -12.856862    -12.856862   1.000000   1.000000
  243      -12.856858    -12.856859   1.000000   1.000000
  244      -12.856858    -12.856859   1.000000   1.000000
  245      -12.719132    -12.719132   1.000000   1.000000
  246      -12.719132    -12.719132   1.000000   1.000000
  247      -12.719132    -12.719132   1.000000   1.000000
  248      -12.719132    -12.719132   1.000000   1.000000
  249      -12.719130    -12.719131   1.000000   1.000000
  250      -12.719130    -12.719131   1.000000   1.000000
  251       -6.921678     -6.921678   1.000000   1.000000
  252       -6.678605     -6.678605   1.000000   1.000000
  253       -6.678605     -6.678605   1.000000   1.000000
  254       -6.678605     -6.678605   1.000000   1.000000
  255       -6.678605     -6.678605   1.000000   1.000000
  256       -6.678592     -6.678592   1.000000   1.000000
  257       -6.678592     -6.678592   1.000000   1.000000
  258       -6.487251     -6.487251   1.000000   1.000000
  259       -6.487251     -6.487251   1.000000   1.000000
  260       -6.487251     -6.487251   1.000000   1.000000
  261       -6.487251     -6.487251   1.000000   1.000000
  262       -6.487236     -6.487237   1.000000   1.000000
  263       -6.487236     -6.487237   1.000000   1.000000
  264       -6.369855     -6.369855   1.000000   1.000000
  265       -6.305900     -6.305900   1.000000   1.000000
  266       -6.305900     -6.305900   1.000000   1.000000
  267       -6.305900     -6.305900   1.000000   1.000000
  268       -6.305900     -6.305900   1.000000   1.000000
  269       -6.305890     -6.305891   1.000000   1.000000
  270       -6.305890     -6.305891   1.000000   1.000000
  271       -6.191493     -6.191492   1.000000   1.000000
  272       -6.191493     -6.191492   1.000000   1.000000
  273       -6.191489     -6.191488   1.000000   1.000000
  274       -6.191489     -6.191488   1.000000   1.000000
  275       -6.191489     -6.191488   1.000000   1.000000
  276       -6.191489     -6.191488   1.000000   1.000000
  277       -6.119637     -6.119638   1.000000   1.000000
  278       -6.119637     -6.119638   1.000000   1.000000
  279       -6.119637     -6.119638   1.000000   1.000000
  280       -6.119637     -6.119638   1.000000   1.000000
  281       -6.119630     -6.119631   1.000000   1.000000
  282       -6.119630     -6.119631   1.000000   1.000000
  283       -6.006972     -6.006972   1.000000   1.000000
  284       -6.006972     -6.006972   1.000000   1.000000
  285       -6.006963     -6.006963   1.000000   1.000000
  286       -6.006963     -6.006963   1.000000   1.000000
  287       -6.006963     -6.006963   1.000000   1.000000
  288       -6.006963     -6.006963   1.000000   1.000000
  289       -5.865033     -5.865033   1.000000   1.000000
  290       -5.865033     -5.865033   1.000000   1.000000
  291       -5.865029     -5.865029   1.000000   1.000000
  292       -5.865029     -5.865029   1.000000   1.000000
  293       -5.865029     -5.865029   1.000000   1.000000
  294       -5.865029     -5.865029   1.000000   1.000000
  295       -5.856366     -5.856366   1.000000   1.000000
  296       -5.856366     -5.856366   1.000000   1.000000
  297       -5.856362     -5.856362   1.000000   1.000000
  298       -5.856362     -5.856362   1.000000   1.000000
  299       -5.856362     -5.856362   1.000000   1.000000
  300       -5.856362     -5.856362   1.000000   1.000000
  301       -5.773599     -5.773599   1.000000   1.000000
  302       -5.773599     -5.773599   1.000000   1.000000
  303       -5.773595     -5.773595   1.000000   1.000000
  304       -5.773595     -5.773595   1.000000   1.000000
  305       -5.773595     -5.773595   1.000000   1.000000
  306       -5.773595     -5.773595   1.000000   1.000000
  307       -5.666738     -5.666739   1.000000   1.000000
  308       -5.666738     -5.666739   1.000000   1.000000
  309       -5.666737     -5.666737   1.000000   1.000000
  310       -5.666737     -5.666737   1.000000   1.000000
  311       -5.666737     -5.666737   1.000000   1.000000
  312       -5.666737     -5.666737   1.000000   1.000000
  313       -5.551221     -5.551221   1.000000   1.000000
  314       -5.551221     -5.551221   1.000000   1.000000
  315       -5.551214     -5.551214   1.000000   1.000000
  316       -5.551214     -5.551214   1.000000   1.000000
  317       -5.551214     -5.551214   1.000000   1.000000
  318       -5.551214     -5.551214   1.000000   1.000000
  319       -5.441902     -5.441902   1.000000   1.000000
  320       -5.441902     -5.441902   1.000000   1.000000
  321       -5.441894     -5.441895   1.000000   1.000000
  322       -5.441894     -5.441895   1.000000   1.000000
  323       -5.441894     -5.441895   1.000000   1.000000
  324       -5.441894     -5.441895   1.000000   1.000000
  325       -4.985662     -4.985662   1.000000   1.000000
  326       -4.985662     -4.985662   1.000000   1.000000
  327       -4.985662     -4.985662   1.000000   1.000000
  328       -4.985662     -4.985662   1.000000   1.000000
  329       -4.985658     -4.985658   1.000000   1.000000
  330       -4.985658     -4.985658   1.000000   1.000000
  331       -4.917191     -4.917191   1.000000   1.000000
  332       -4.917191     -4.917191   1.000000   1.000000
  333       -4.917191     -4.917191   1.000000   1.000000
  334       -4.917191     -4.917191   1.000000   1.000000
  335       -4.917178     -4.917178   1.000000   1.000000
  336       -4.917178     -4.917178   1.000000   1.000000
  337       -4.872520     -4.872519   1.000000   1.000000
  338       -4.872520     -4.872519   1.000000   1.000000
  339       -4.872507     -4.872507   1.000000   1.000000
  340       -4.872507     -4.872507   1.000000   1.000000
  341       -4.872507     -4.872507   1.000000   1.000000
  342       -4.872507     -4.872507   1.000000   1.000000
  343       -4.865834     -4.865835   1.000000   1.000000
  344       -4.865834     -4.865835   1.000000   1.000000
  345       -4.865834     -4.865835   1.000000   1.000000
  346       -4.865834     -4.865835   1.000000   1.000000
  347       -4.865821     -4.865821   1.000000   1.000000
  348       -4.865821     -4.865821   1.000000   1.000000
  349       -4.713272     -4.713271   1.000000   1.000000
  350       -4.713272     -4.713271   1.000000   1.000000
  351       -4.713263     -4.713262   1.000000   1.000000
  352       -4.713263     -4.713262   1.000000   1.000000
  353       -4.713263     -4.713262   1.000000   1.000000
  354       -4.713263     -4.713262   1.000000   1.000000
  355       -4.661789     -4.661788   1.000000   1.000000
  356       -4.661789     -4.661788   1.000000   1.000000
  357       -4.661777     -4.661776   1.000000   1.000000
  358       -4.661777     -4.661776   1.000000   1.000000
  359       -4.661777     -4.661776   1.000000   1.000000
  360       -4.661777     -4.661776   1.000000   1.000000
  361       -4.586717     -4.586717   1.000000   1.000000
  362       -4.586717     -4.586717   1.000000   1.000000
  363       -4.586708     -4.586708   1.000000   1.000000
  364       -4.586708     -4.586708   1.000000   1.000000
  365       -4.586708     -4.586708   1.000000   1.000000
  366       -4.586708     -4.586708   1.000000   1.000000
  367       -4.501778     -4.501778   1.000000   1.000000
  368       -4.501778     -4.501778   1.000000   1.000000
  369       -4.501778     -4.501778   1.000000   1.000000
  370       -4.501778     -4.501778   1.000000   1.000000
  371       -4.501774     -4.501773   1.000000   1.000000
  372       -4.501774     -4.501773   1.000000   1.000000
  373       -4.489580     -4.489580   1.000000   1.000000
  374       -4.489580     -4.489580   1.000000   1.000000
  375       -4.489580     -4.489580   1.000000   1.000000
  376       -4.489580     -4.489580   1.000000   1.000000
  377       -4.489577     -4.489577   1.000000   1.000000
  378       -4.489577     -4.489577   1.000000   1.000000
  379       -4.254501     -4.254500   1.000000   1.000000
  380       -4.254501     -4.254500   1.000000   1.000000
  381       -4.254501     -4.254500   1.000000   1.000000
  382       -4.254501     -4.254500   1.000000   1.000000
  383       -4.254495     -4.254495   1.000000   1.000000
  384       -4.254495     -4.254495   1.000000   1.000000
  385       -4.094736     -4.094736   1.000000   1.000000
  386       -4.094736     -4.094736   1.000000   1.000000
  387       -4.094728     -4.094728   1.000000   1.000000
  388       -4.094728     -4.094728   1.000000   1.000000
  389       -4.094728     -4.094728   1.000000   1.000000
  390       -4.094728     -4.094728   1.000000   1.000000
  391       -4.030543     -4.030543   1.000000   1.000000
  392       -4.030543     -4.030543   1.000000   1.000000
  393       -4.030536     -4.030536   1.000000   1.000000
  394       -4.030536     -4.030536   1.000000   1.000000
  395       -4.030536     -4.030536   1.000000   1.000000
  396       -4.030536     -4.030536   1.000000   1.000000
  397       -3.972078     -3.972078   1.000000   1.000000
  398       -3.972078     -3.972078   1.000000   1.000000
  399       -3.972067     -3.972068   1.000000   1.000000
  400       -3.972067     -3.972068   1.000000   1.000000
  401       -3.972067     -3.972068   1.000000   1.000000
  402       -3.972067     -3.972068   1.000000   1.000000
  403       -3.876799     -3.876799   1.000000   1.000000
  404       -3.876799     -3.876799   1.000000   1.000000
  405       -3.876788     -3.876788   1.000000   1.000000
  406       -3.876788     -3.876788   1.000000   1.000000
  407       -3.876788     -3.876788   1.000000   1.000000
  408       -3.876788     -3.876788   1.000000   1.000000
  409       -3.812394     -3.812393   1.000000   1.000000
  410       -3.812394     -3.812393   1.000000   1.000000
  411       -3.812394     -3.812393   1.000000   1.000000
  412       -3.812394     -3.812393   1.000000   1.000000
  413       -3.812381     -3.812380   1.000000   1.000000
  414       -3.812381     -3.812380   1.000000   1.000000
  415       -3.740937     -3.740937   1.000000   1.000000
  416       -3.740937     -3.740937   1.000000   1.000000
  417       -3.740937     -3.740937   1.000000   1.000000
  418       -3.740937     -3.740937   1.000000   1.000000
  419       -3.740927     -3.740927   1.000000   1.000000
  420       -3.740927     -3.740927   1.000000   1.000000
  421       -3.630599     -3.630599   1.000000   1.000000
  422       -3.630599     -3.630599   1.000000   1.000000
  423       -3.630593     -3.630593   1.000000   1.000000
  424       -3.630593     -3.630593   1.000000   1.000000
  425       -3.630593     -3.630593   1.000000   1.000000
  426       -3.630593     -3.630593   1.000000   1.000000
  427       -3.562827     -3.562827   1.000000   1.000000
  428       -3.562827     -3.562827   1.000000   1.000000
  429       -3.562807     -3.562807   1.000000   1.000000
  430       -3.562807     -3.562807   1.000000   1.000000
  431       -3.562807     -3.562807   1.000000   1.000000
  432       -3.562807     -3.562807   1.000000   1.000000
  433       -3.562724     -3.562723   1.000000   1.000000
  434       -3.562724     -3.562723   1.000000   1.000000
  435       -3.562705     -3.562704   1.000000   1.000000
  436       -3.562705     -3.562704   1.000000   1.000000
  437       -3.562705     -3.562704   1.000000   1.000000
  438       -3.562705     -3.562704   1.000000   1.000000
  439       -3.444783     -3.444784   1.000000   1.000000
  440       -3.444783     -3.444784   1.000000   1.000000
  441       -3.444779     -3.444779   1.000000   1.000000
  442       -3.444779     -3.444779   1.000000   1.000000
  443       -3.444779     -3.444779   1.000000   1.000000
  444       -3.444779     -3.444779   1.000000   1.000000
  445       -3.103227     -3.103226   1.000000   1.000000
  446       -3.103224     -3.103223   1.000000   1.000000
  447       -3.100983     -3.100982   1.000000   1.000000
  448       -3.100980     -3.100979   1.000000   1.000000
  449       -2.984214     -2.984215   1.000000   1.000000
  450       -2.984214     -2.984215   1.000000   1.000000
  451       -2.984214     -2.984214   1.000000   1.000000
  452       -2.984214     -2.984214   1.000000   1.000000
  453       -2.984214     -2.984214   1.000000   1.000000
  454       -2.984214     -2.984214   1.000000   1.000000
  455       -2.974641     -2.974641   1.000000   1.000000
  456       -2.904120     -2.904119   1.000000   1.000000
  457       -2.904120     -2.904119   1.000000   1.000000
  458       -2.904101     -2.904101   1.000000   1.000000
  459       -2.904101     -2.904101   1.000000   1.000000
  460       -2.904101     -2.904101   1.000000   1.000000
  461       -2.904101     -2.904101   1.000000   1.000000
  462       -2.885797     -2.885797   1.000000   1.000000
  463       -2.885797     -2.885797   1.000000   1.000000
  464       -2.885779     -2.885779   1.000000   1.000000
  465       -2.885779     -2.885779   1.000000   1.000000
  466       -2.885779     -2.885779   1.000000   1.000000
  467       -2.885779     -2.885779   1.000000   1.000000
  468       -2.880626     -2.880626   1.000000   1.000000
  469       -2.880626     -2.880626   1.000000   1.000000
  470       -2.880624     -2.880624   1.000000   1.000000
  471       -2.880624     -2.880624   1.000000   1.000000
  472       -2.880624     -2.880624   1.000000   1.000000
  473       -2.880624     -2.880624   1.000000   1.000000
  474       -2.863063     -2.863064   1.000000   1.000000
  475       -2.844988     -2.844988   1.000000   1.000000
  476       -2.844988     -2.844988   1.000000   1.000000
  477       -2.844988     -2.844988   1.000000   1.000000
  478       -2.844988     -2.844988   1.000000   1.000000
  479       -2.844973     -2.844973   1.000000   1.000000
  480       -2.844973     -2.844973   1.000000   1.000000
  481       -2.805947     -2.805947   1.000000   1.000000
  482       -2.805947     -2.805947   1.000000   1.000000
  483       -2.805947     -2.805947   1.000000   1.000000
  484       -2.805947     -2.805947   1.000000   1.000000
  485       -2.805932     -2.805932   1.000000   1.000000
  486       -2.805932     -2.805932   1.000000   1.000000
  487       -2.770298     -2.770298   1.000000   1.000000
  488       -2.770298     -2.770298   1.000000   1.000000
  489       -2.770298     -2.770298   1.000000   1.000000
  490       -2.770298     -2.770298   1.000000   1.000000
  491       -2.770285     -2.770285   1.000000   1.000000
  492       -2.770285     -2.770285   1.000000   1.000000
  493       -2.716057     -2.716057   1.000000   1.000000
  494       -2.716057     -2.716057   1.000000   1.000000
  495       -2.716057     -2.716057   1.000000   1.000000
  496       -2.716057     -2.716057   1.000000   1.000000
  497       -2.716044     -2.716044   1.000000   1.000000
  498       -2.716044     -2.716044   1.000000   1.000000
  499       -2.178487     -2.178487   1.000000   1.000000
  500       -2.178487     -2.178487   1.000000   1.000000
  501       -2.178483     -2.178482   1.000000   1.000000
  502       -2.178483     -2.178482   1.000000   1.000000
  503       -2.178483     -2.178482   1.000000   1.000000
  504       -2.178483     -2.178482   1.000000   1.000000
  505       -2.169220     -2.169220   1.000000   1.000000
  506       -2.169220     -2.169220   1.000000   1.000000
  507       -2.169220     -2.169220   1.000000   1.000000
  508       -2.169220     -2.169220   1.000000   1.000000
  509       -2.169215     -2.169215   1.000000   1.000000
  510       -2.169215     -2.169215   1.000000   1.000000
  511       -2.123889     -2.123890   1.000000   1.000000
  512       -2.123889     -2.123890   1.000000   1.000000