  150  150    1    2
  0.4150140E+02  0.1595158E-08  0.1595158E-08  0.2824984E-08  0.5000000E-15
  1.000000000000000E-004
  CAR 
 MoSSe-WSSe static SCF calculation       
   1200      8    800
 
  0.0000000E+00  0.0000000E+00  0.0000000E+00  0.2040816E-01
    1      -38.473625    -38.473631   1.000000   1.000000
    2      -38.473625    -38.473631   1.000000   1.000000
    3      -38.473625    -38.473631   1.000000   1.000000
    4      -38.473625    -38.473631   1.000000   1.000000
    5      -38.473618    -38.473624   1.000000   1.000000
    6      -38.473618    -38.473624   1.000000   1.000000
    7      -38.466406    -38.466412   1.000000   1.000000
    8      -38.466406    -38.466412   1.000000   1.000000
    9      -38.466406    -38.466412   1.000000   1.000000
   10      -38.466406    -38.466412   1.000000   1.000000
   11      -38.466399    -38.466405   1.000000   1.000000
   12      -38.466399    -38.466405   1.000000   1.000000
   13      -38.411265    -38.411271   1.000000   1.000000
   14      -38.411265    -38.411271   1.000000   1.000000
   15      -38.411258    -38.411264   1.000000   1.000000
   16      -38.411258    -38.411264   1.000000   1.000000
   17      -38.411258    -38.411264   1.000000   1.000000
   18      -38.411258    -38.411264   1.000000   1.000000
   19      -38.375166    -38.375171   1.000000   1.000000
   20      -38.354161    -38.354167   1.000000   1.000000
   21      -38.354161    -38.354167   1.000000   1.000000
   22      -38.354161    -38.354167   1.000000   1.000000
   23      -38.354161    -38.354167   1.000000   1.000000
   24      -38.354161    -38.354167   1.000000   1.000000
   25      -38.354161    -38.354167   1.000000   1.000000
   26      -38.327244    -38.327250   1.000000   1.000000
   27      -38.327244    -38.327250   1.000000   1.000000
   28      -38.327237    -38.327243   1.000000   1.000000
   29      -38.327237    -38.327243   1.000000   1.000000
   30      -38.327237    -38.327243   1.000000   1.000000
   31      -38.327237    -38.327243   1.000000   1.000000
   32      -38.326533    -38.326538   1.000000   1.000000
   33      -38.326533    -38.326538   1.000000   1.000000
   34      -38.326533    -38.326538   1.000000   1.000000
   35      -38.326533    -38.326538   1.000000   1.000000
   36      -38.326533    -38.326538   1.000000   1.000000
   37      -38.326533    -38.326538   1.000000   1.000000
   38      -38.319978    -38.319983   1.000000   1.000000
   39      -38.319978    -38.319983   1.000000   1.000000
   40      -38.319978    -38.319983   1.000000   1.000000
   41      -38.319978    -38.319983   1.000000   1.000000
   42      -38.319978    -38.319983   1.000000   1.000000
   43      -38.319978    -38.319983   1.000000   1.000000
   44      -38.309423    -38.309429   1.000000   1.000000
   45      -38.309423    -38.309429   1.000000   1.000000
   46      -38.309423    -38.309428   1.000000   1.000000
   47      -38.309423    -38.309428   1.000000   1.000000
   48      -38.309423    -38.309428   1.000000   1.000000
   49      -38.309423    -38.309428   1.000000   1.000000
   50      -38.294892    -38.294898   1.000000   1.000000
   51      -38.294892    -38.294898   1.000000   1.000000
   52      -38.294892    -38.294898   1.000000   1.000000
   53      -38.294892    -38.294898   1.000000   1.000000
   54      -38.294886    -38.294891   1.000000   1.000000
   55      -38.294886    -38.294891   1.000000   1.000000
   56      -38.272088    -38.272094   1.000000   1.000000
   57      -38.272088    -38.272094   1.000000   1.000000
   58      -38.272088    -38.272094   1.000000   1.000000
   59      -38.272088    -38.272094   1.000000   1.000000
   60      -38.272081    -38.272087   1.000000   1.000000
   61      -38.272081    -38.272087   1.000000   1.000000
   62      -38.250689    -38.250694   1.000000   1.000000
   63      -38.250689    -38.250694   1.000000   1.000000
   64      -38.250682    -38.250688   1.000000   1.000000
   65      -38.250682    -38.250688   1.000000   1.000000
   66      -38.250682    -38.250688   1.000000   1.000000
   67      -38.250682    -38.250688   1.000000   1.000000
   68      -38.208071    -38.208076   1.000000   1.000000
   69      -38.208071    -38.208076   1.000000   1.000000
   70      -38.208064    -38.208070   1.000000   1.000000
   71      -38.208064    -38.208070   1.000000   1.000000
   72      -38.208064    -38.208070   1.000000   1.000000
   73      -38.208064    -38.208070   1.000000   1.000000
   74      -38.181546    -38.181552   1.000000   1.000000
   75      -38.181537    -38.181543   1.000000   1.000000
   76      -35.888326    -35.888331   1.000000   1.000000
   77      -35.888326    -35.888331   1.000000   1.000000
   78      -35.888326    -35.888331   1.000000   1.000000
   79      -35.888326    -35.888331   1.000000   1.000000
   80      -35.888319    -35.888324   1.000000   1.000000
   81      -35.888319    -35.888324   1.000000   1.000000
   82      -35.880284    -35.880289   1.000000   1.000000
   83      -35.880284    -35.880289   1.000000   1.000000
   84      -35.880284    -35.880289   1.000000   1.000000
   85      -35.880284    -35.880289   1.000000   1.000000
   86      -35.880277    -35.880282   1.000000   1.000000
   87      -35.880277    -35.880282   1.000000   1.000000
   88      -35.819280    -35.819285   1.000000   1.000000
   89      -35.819280    -35.819285   1.000000   1.000000
   90      -35.819273    -35.819278   1.000000   1.000000
   91      -35.819273    -35.819278   1.000000   1.000000
   92      -35.819273    -35.819278   1.000000   1.000000
   93      -35.819273    -35.819278   1.000000   1.000000
   94      -35.814887    -35.814892   1.000000   1.000000
   95      -35.789538    -35.789543   1.000000   1.000000
   96      -35.789538    -35.789543   1.000000   1.000000
   97      -35.789538    -35.789543   1.000000   1.000000
   98      -35.789538    -35.789543   1.000000   1.000000
   99      -35.789538    -35.789543   1.000000   1.000000
  100      -35.789538    -35.789543   1.000000   1.000000
  101      -35.756178    -35.756183   1.000000   1.000000
  102      -35.756178    -35.756183   1.000000   1.000000
  103      -35.756178    -35.756183   1.000000   1.000000
  104      -35.756178    -35.756183   1.000000   1.000000
  105      -35.756178    -35.756183   1.000000   1.000000
  106      -35.756178    -35.756183   1.000000   1.000000
  107      -35.748263    -35.748267   1.000000   1.000000
  108      -35.748263    -35.748267   1.000000   1.000000
  109      -35.748262    -35.748267   1.000000   1.000000
  110      -35.748262    -35.748267   1.000000   1.000000
  111      -35.748262    -35.748267   1.000000   1.000000
  112      -35.748262    -35.748267   1.000000   1.000000
  113      -35.735526    -35.735531   1.000000   1.000000
  114      -35.735526    -35.735531   1.000000   1.000000
  115      -35.735526    -35.735530   1.000000   1.000000
  116      -35.735526    -35.735530   1.000000   1.000000
  117      -35.735526    -35.735530   1.000000   1.000000
  118      -35.735526    -35.735530   1.000000   1.000000
  119      -35.724335    -35.724340   1.000000   1.000000
  120      -35.724335    -35.724340   1.000000   1.000000
  121      -35.724328    -35.724333   1.000000   1.000000
  122      -35.724328    -35.724333   1.000000   1.000000
  123      -35.724328    -35.724333   1.000000   1.000000
  124      -35.724328    -35.724333   1.000000   1.000000
  125      -35.690447    -35.690452   1.000000   1.000000
  126      -35.690447    -35.690452   1.000000   1.000000
  127      -35.690447    -35.690452   1.000000   1.000000
  128      -35.690447    -35.690452   1.000000   1.000000
  129      -35.690440    -35.690445   1.000000   1.000000
  130      -35.690440    -35.690445   1.000000   1.000000
  131      -35.663709    -35.663713   1.000000   1.000000
  132      -35.663709    -35.663713   1.000000   1.000000
  133      -35.663709    -35.663713   1.000000   1.000000
  134      -35.663709    -35.663713   1.000000   1.000000
  135      -35.663702    -35.663707   1.000000   1.000000
  136      -35.663702    -35.663707   1.000000   1.000000
  137      -35.639692    -35.639697   1.000000   1.000000
  138      -35.639692    -35.639697   1.000000   1.000000
  139      -35.639686    -35.639691   1.000000   1.000000
  140      -35.639686    -35.639691   1.000000   1.000000
  141      -35.639686    -35.639691   1.000000   1.000000
  142      -35.639686    -35.639691   1.000000   1.000000
  143      -35.593471    -35.593476   1.000000   1.000000
  144      -35.593471    -35.593476   1.000000   1.000000
  145      -35.593464    -35.593469   1.000000   1.000000
  146      -35.593464    -35.593469   1.000000   1.000000
  147      -35.593464    -35.593469   1.000000   1.000000
  148      -35.593464    -35.593469   1.000000   1.000000
  149      -35.564690    -35.564695   1.000000   1.000000
  150      -35.564682    -35.564687   1.000000   1.000000
  151      -15.176816    -15.176813   1.000000   1.000000
  152      -15.144430    -15.144427   1.000000   1.000000
  153      -14.600219    -14.600216   1.000000   1.000000
  154      -14.600219    -14.600216   1.000000   1.000000
  155      -14.600218    -14.600215   1.000000   1.000000
  156      -14.600218    -14.600215   1.000000   1.000000
  157      -14.600218    -14.600215   1.000000   1.000000
  158      -14.600218    -14.600215   1.000000   1.000000
  159      -14.514348    -14.514343   1.000000   1.000000
  160      -14.514348    -14.514343   1.000000   1.000000
  161      -14.514346    -14.514341   1.000000   1.000000
  162      -14.514346    -14.514341   1.000000   1.000000
  163      -14.514346    -14.514341   1.000000   1.000000
  164      -14.514346    -14.514341   1.000000   1.000000
  165      -13.893389    -13.893386   1.000000   1.000000
  166      -13.688743    -13.688740   1.000000   1.000000
  167      -13.688743    -13.688740   1.000000   1.000000
  168      -13.688743    -13.688740   1.000000   1.000000
  169      -13.688743    -13.688740   1.000000   1.000000
  170      -13.688741    -13.688738   1.000000   1.000000
  171      -13.688741    -13.688738   1.000000   1.000000
  172      -13.673453    -13.673448   1.000000   1.000000
  173      -13.600823    -13.600820   1.000000   1.000000
  174      -13.600823    -13.600820   1.000000   1.000000
  175      -13.600823    -13.600820   1.000000   1.000000
  176      -13.600823    -13.600820   1.000000   1.000000
  177      -13.600821    -13.600818   1.000000   1.000000
  178      -13.600821    -13.600818   1.000000   1.000000
  179      -13.509207    -13.509203   1.000000   1.000000
  180      -13.509207    -13.509203   1.000000   1.000000
  181      -13.509207    -13.509203   1.000000   1.000000
  182      -13.509207    -13.509203   1.000000   1.000000
  183      -13.509203    -13.509199   1.000000   1.000000
  184      -13.509203    -13.509199   1.000000   1.000000
  185      -13.414132    -13.414129   1.000000   1.000000
  186      -13.414132    -13.414129   1.000000   1.000000
  187      -13.414127    -13.414124   1.000000   1.000000
  188      -13.414127    -13.414124   1.000000   1.000000
  189      -13.414127    -13.414124   1.000000   1.000000
  190      -13.414127    -13.414124   1.000000   1.000000
  191      -13.380230    -13.380225   1.000000   1.000000
  192      -13.380230    -13.380225   1.000000   1.000000
  193      -13.380230    -13.380225   1.000000   1.000000
  194      -13.380230    -13.380225   1.000000   1.000000
  195      -13.380228    -13.380223   1.000000   1.000000
  196      -13.380228    -13.380223   1.000000   1.000000
  197      -13.200972    -13.200967   1.000000   1.000000
  198      -13.200972    -13.200967   1.000000   1.000000
  199      -13.200964    -13.200960   1.000000   1.000000
  200      -13.200964    -13.200960   1.000000   1.000000
  201      -13.200964    -13.200960   1.000000   1.000000
  202      -13.200964    -13.200960   1.000000   1.000000
  203      -13.146536    -13.146533   1.000000   1.000000
  204      -13.146536    -13.146533   1.000000   1.000000
  205      -13.146532    -13.146529   1.000000   1.000000
  206      -13.146532    -13.146529   1.000000   1.000000
  207      -13.146532    -13.146529   1.000000   1.000000
  208      -13.146532    -13.146529   1.000000   1.000000
  209      -13.027538    -13.027535   1.000000   1.000000
  210      -13.027538    -13.027535   1.000000   1.000000
  211      -13.027538    -13.027535   1.000000   1.000000
  212      -13.027538    -13.027535   1.000000   1.000000
  213      -13.027533    -13.027530   1.000000   1.000000
  214      -13.027533    -13.027530   1.000000   1.000000
  215      -12.984739    -12.984737   1.000000   1.000000
  216      -12.984739    -12.984737   1.000000   1.000000
  217      -12.984738    -12.984735   1.000000   1.000000
  218      -12.984738    -12.984735   1.000000   1.000000
  219      -12.984738    -12.984735   1.000000   1.000000
  220      -12.984738    -12.984735   1.000000   1.000000
  221      -12.925352    -12.925347   1.000000   1.000000
  222      -12.925352    -12.925347   1.000000   1.000000
  223      -12.925347    -12.925342   1.000000   1.000000
  224      -12.925347    -12.925342   1.000000   1.000000
  225      -12.925347    -12.925342   1.000000   1.000000
  226      -12.925347    -12.925342   1.000000   1.000000
  227      -12.809621    -12.809617   1.000000   1.000000
  228      -12.809621    -12.809617   1.000000   1.000000
  229      -12.809621    -12.809617   1.000000   1.000000
  230      -12.809621    -12.809617   1.000000   1.000000
  231      -12.809614    -12.809609   1.000000   1.000000
  232      -12.809614    -12.809609   1.000000   1.000000
  233      -12.787972    -12.787969   1.000000   1.000000
  234      -12.787972    -12.787969   1.000000   1.000000
  235      -12.787972    -12.787969   1.000000   1.000000
  236      -12.787972    -12.787969   1.000000   1.000000
  237      -12.787970    -12.787967   1.000000   1.000000
  238      -12.787970    -12.787967   1.000000   1.000000
  239      -12.706331    -12.706326   1.000000   1.000000
  240      -12.706331    -12.706326   1.000000   1.000000
  241      -12.706327    -12.706322   1.000000   1.000000
  242      -12.706327    -12.706322   1.000000   1.000000
  243      -12.706327    -12.706322   1.000000   1.000000
  244      -12.706327    -12.706322   1.000000   1.000000
  245      -12.574525    -12.574520   1.000000   1.000000
  246      -12.574525    -12.574520   1.000000   1.000000
  247      -12.574525    -12.574520   1.000000   1.000000
  248      -12.574525    -12.574520   1.000000   1.000000
  249      -12.574521    -12.574516   1.000000   1.000000
  250      -12.574521    -12.574516   1.000000   1.000000
  251       -6.634015     -6.634016   1.000000   1.000000
  252       -6.432611     -6.432610   1.000000   1.000000
  253       -6.390310     -6.390309   1.000000   1.000000
  254       -6.390310     -6.390309   1.000000   1.000000
  255       -6.390310     -6.390309   1.000000   1.000000
  256       -6.390310     -6.390309   1.000000   1.000000
  257       -6.390297     -6.390296   1.000000   1.000000
  258       -6.390297     -6.390296   1.000000   1.000000
  259       -6.367539     -6.367538   1.000000   1.000000
  260       -6.367539     -6.367538   1.000000   1.000000
  261       -6.367539     -6.367538   1.000000   1.000000
  262       -6.367539     -6.367538   1.000000   1.000000
  263       -6.367530     -6.367528   1.000000   1.000000
  264       -6.367530     -6.367528   1.000000   1.000000
  265       -6.197365     -6.197363   1.000000   1.000000
  266       -6.197365     -6.197363   1.000000   1.000000
  267       -6.197365     -6.197363   1.000000   1.000000
  268       -6.197365     -6.197363   1.000000   1.000000
  269       -6.197350     -6.197349   1.000000   1.000000
  270       -6.197350     -6.197349   1.000000   1.000000
  271       -6.177706     -6.177705   1.000000   1.000000
  272       -6.177706     -6.177705   1.000000   1.000000
  273       -6.177706     -6.177705   1.000000   1.000000
  274       -6.177706     -6.177705   1.000000   1.000000
  275       -6.177699     -6.177697   1.000000   1.000000
  276       -6.177699     -6.177697   1.000000   1.000000
  277       -5.923008     -5.923007   1.000000   1.000000
  278       -5.923008     -5.923007   1.000000   1.000000
  279       -5.923003     -5.923002   1.000000   1.000000
  280       -5.923003     -5.923002   1.000000   1.000000
  281       -5.923003     -5.923002   1.000000   1.000000
  282       -5.923003     -5.923002   1.000000   1.000000
  283       -5.903557     -5.903557   1.000000   1.000000
  284       -5.903557     -5.903557   1.000000   1.000000
  285       -5.903554     -5.903554   1.000000   1.000000
  286       -5.903554     -5.903554   1.000000   1.000000
  287       -5.903554     -5.903554   1.000000   1.000000
  288       -5.903554     -5.903554   1.000000   1.000000
  289       -5.836307     -5.836307   1.000000   1.000000
  290       -5.836307     -5.836307   1.000000   1.000000
  291       -5.836303     -5.836303   1.000000   1.000000
  292       -5.836303     -5.836303   1.000000   1.000000
  293       -5.836303     -5.836303   1.000000   1.000000
  294       -5.836303     -5.836303   1.000000   1.000000
  295       -5.729919     -5.729918   1.000000   1.000000
  296       -5.729919     -5.729918   1.000000   1.000000
  297       -5.729917     -5.729916   1.000000   1.000000
  298       -5.729917     -5.729916   1.000000   1.000000
  299       -5.729917     -5.729916   1.000000   1.000000
  300       -5.729917     -5.729916   1.000000   1.000000
  301       -5.720558     -5.720556   1.000000   1.000000
  302       -5.720558     -5.720556   1.000000   1.000000
  303       -5.720549     -5.720548   1.000000   1.000000
  304       -5.720549     -5.720548   1.000000   1.000000
  305       -5.720549     -5.720548   1.000000   1.000000
  306       -5.720549     -5.720548   1.000000   1.000000
  307       -5.578013     -5.578012   1.000000   1.000000
  308       -5.578013     -5.578012   1.000000   1.000000
  309       -5.578009     -5.578008   1.000000   1.000000
  310       -5.578009     -5.578008   1.000000   1.000000
  311       -5.578009     -5.578008   1.000000   1.000000
  312       -5.578009     -5.578008   1.000000   1.000000
  313       -5.503681     -5.503679   1.000000   1.000000
  314       -5.503681     -5.503679   1.000000   1.000000
  315       -5.503673     -5.503672   1.000000   1.000000
  316       -5.503673     -5.503672   1.000000   1.000000
  317       -5.503673     -5.503672   1.000000   1.000000
  318       -5.503673     -5.503672   1.000000   1.000000
  319       -5.261323     -5.261320   1.000000   1.000000
  320       -5.261323     -5.261320   1.000000   1.000000
  321       -5.261316     -5.261313   1.000000   1.000000
  322       -5.261316     -5.261313   1.000000   1.000000
  323       -5.261316     -5.261313   1.000000   1.000000
  324       -5.261316     -5.261313   1.000000   1.000000
  325       -4.928254     -4.928253   1.000000   1.000000
  326       -4.928254     -4.928253   1.000000   1.000000
  327       -4.928254     -4.928253   1.000000   1.000000
  328       -4.928254     -4.928253   1.000000   1.000000
  329       -4.928241     -4.928240   1.000000   1.000000
  330       -4.928241     -4.928240   1.000000   1.000000
  331       -4.726575     -4.726574   1.000000   1.000000
  332       -4.726575     -4.726574   1.000000   1.000000
  333       -4.726563     -4.726562   1.000000   1.000000
  334       -4.726563     -4.726562   1.000000   1.000000
  335       -4.726563     -4.726562   1.000000   1.000000
  336       -4.726563     -4.726562   1.000000   1.000000
  337       -4.696666     -4.696665   1.000000   1.000000
  338       -4.696666     -4.696665   1.000000   1.000000
  339       -4.696666     -4.696665   1.000000   1.000000
  340       -4.696666     -4.696665   1.000000   1.000000
  341       -4.696662     -4.696661   1.000000   1.000000
  342       -4.696662     -4.696661   1.000000   1.000000
  343       -4.649184     -4.649183   1.000000   1.000000
  344       -4.649184     -4.649183   1.000000   1.000000
  345       -4.649175     -4.649174   1.000000   1.000000
  346       -4.649175     -4.649174   1.000000   1.000000
  347       -4.649175     -4.649174   1.000000   1.000000
  348       -4.649175     -4.649174   1.000000   1.000000
  349       -4.628200     -4.628198   1.000000   1.000000
  350       -4.628200     -4.628198   1.000000   1.000000
  351       -4.628200     -4.628198   1.000000   1.000000
  352       -4.628200     -4.628198   1.000000   1.000000
  353       -4.628187     -4.628186   1.000000   1.000000
  354       -4.628187     -4.628186   1.000000   1.000000
  355       -4.587299     -4.587298   1.000000   1.000000
  356       -4.587299     -4.587298   1.000000   1.000000
  357       -4.587286     -4.587286   1.000000   1.000000
  358       -4.587286     -4.587286   1.000000   1.000000
  359       -4.587286     -4.587286   1.000000   1.000000
  360       -4.587286     -4.587286   1.000000   1.000000
  361       -4.549673     -4.549672   1.000000   1.000000
  362       -4.549673     -4.549672   1.000000   1.000000
  363       -4.549673     -4.549672   1.000000   1.000000
  364       -4.549673     -4.549672   1.000000   1.000000
  365       -4.549670     -4.549669   1.000000   1.000000
  366       -4.549670     -4.549669   1.000000   1.000000
  367       -4.425507     -4.425507   1.000000   1.000000
  368       -4.425507     -4.425507   1.000000   1.000000
  369       -4.425498     -4.425498   1.000000   1.000000
  370       -4.425498     -4.425498   1.000000   1.000000
  371       -4.425498     -4.425498   1.000000   1.000000
  372       -4.425498     -4.425498   1.000000   1.000000
  373       -4.318359     -4.318359   1.000000   1.000000
  374       -4.318359     -4.318359   1.000000   1.000000
  375       -4.318359     -4.318359   1.000000   1.000000
  376       -4.318359     -4.318359   1.000000   1.000000
  377       -4.318353     -4.318353   1.000000   1.000000
  378       -4.318353     -4.318353   1.000000   1.000000
  379       -4.215998     -4.215998   1.000000   1.000000
  380       -4.215998     -4.215998   1.000000   1.000000
  381       -4.215998     -4.215998   1.000000   1.000000
  382       -4.215998     -4.215998   1.000000   1.000000
  383       -4.215993     -4.215993   1.000000   1.000000
  384       -4.215993     -4.215993   1.000000   1.000000
  385       -4.096173     -4.096173   1.000000   1.000000
  386       -4.096173     -4.096173   1.000000   1.000000
  387       -4.096166     -4.096166   1.000000   1.000000
  388       -4.096166     -4.096166   1.000000   1.000000
  389       -4.096166     -4.096166   1.000000   1.000000
  390       -4.096166     -4.096166   1.000000   1.000000
  391       -3.940901     -3.940899   1.000000   1.000000
  392       -3.940901     -3.940899   1.000000   1.000000
  393       -3.940890     -3.940888   1.000000   1.000000
  394       -3.940890     -3.940888   1.000000   1.000000
  395       -3.940890     -3.940888   1.000000   1.000000
  396       -3.940890     -3.940888   1.000000   1.000000
  397       -3.809250     -3.809250   1.000000   1.000000
  398       -3.809250     -3.809250   1.000000   1.000000
  399       -3.809243     -3.809242   1.000000   1.000000
  400       -3.809243     -3.809242   1.000000   1.000000
  401       -3.809243     -3.809242   1.000000   1.000000
  402       -3.809243     -3.809242   1.000000   1.000000
  403       -3.802298     -3.802298   1.000000   1.000000
  404       -3.802298     -3.802298   1.000000   1.000000
  405       -3.802298     -3.802298   1.000000   1.000000
  406       -3.802298     -3.802298   1.000000   1.000000
  407       -3.802288     -3.802288   1.000000   1.000000
  408       -3.802288     -3.802288   1.000000   1.000000
  409       -3.685689     -3.685686   1.000000   1.000000
  410       -3.685689     -3.685686   1.000000   1.000000
  411       -3.685678     -3.685676   1.000000   1.000000
  412       -3.685678     -3.685676   1.000000   1.000000
  413       -3.685678     -3.685676   1.000000   1.000000
  414       -3.685678     -3.685676   1.000000   1.000000
  415       -3.626813     -3.626813   1.000000   1.000000
  416       -3.626813     -3.626813   1.000000   1.000000
  417       -3.626793     -3.626794   1.000000   1.000000
  418       -3.626793     -3.626794   1.000000   1.000000
  419       -3.626793     -3.626794   1.000000   1.000000
  420       -3.626793     -3.626794   1.000000   1.000000
  421       -3.522238     -3.522237   1.000000   1.000000
  422       -3.522238     -3.522237   1.000000   1.000000
  423       -3.522238     -3.522237   1.000000   1.000000
  424       -3.522238     -3.522237   1.000000   1.000000
  425       -3.522225     -3.522225   1.000000   1.000000
  426       -3.522225     -3.522225   1.000000   1.000000
  427       -3.506271     -3.506269   1.000000   1.000000
  428       -3.506271     -3.506269   1.000000   1.000000
  429       -3.506267     -3.506265   1.000000   1.000000
  430       -3.506267     -3.506265   1.000000   1.000000
  431       -3.506267     -3.506265   1.000000   1.000000
  432       -3.506267     -3.506265   1.000000   1.000000
  433       -3.341379     -3.341376   1.000000   1.000000
  434       -3.341379     -3.341376   1.000000   1.000000
  435       -3.341372     -3.341369   1.000000   1.000000
  436       -3.341372     -3.341369   1.000000   1.000000
  437       -3.341372     -3.341369   1.000000   1.000000
  438       -3.341372     -3.341369   1.000000   1.000000
  439       -3.276684     -3.276685   1.000000   1.000000
  440       -3.276684     -3.276685   1.000000   1.000000
  441       -3.276664     -3.276665   1.000000   1.000000
  442       -3.276664     -3.276665   1.000000   1.000000
  443       -3.276664     -3.276665   1.000000   1.000000
  444       -3.276664     -3.276665   1.000000   1.000000
  445       -3.167607     -3.167609   1.000000   1.000000
  446       -3.167604     -3.167606   1.000000   1.000000
  447       -2.970162     -2.970163   1.000000   1.000000
  448       -2.970162     -2.970163   1.000000   1.000000
  449       -2.970143     -2.970144   1.000000   1.000000
  450       -2.970143     -2.970144   1.000000   1.000000
  451       -2.970143     -2.970144   1.000000   1.000000
  452       -2.970143     -2.970144   1.000000   1.000000
  453       -2.942405     -2.942404   1.000000   1.000000
  454       -2.942405     -2.942404   1.000000   1.000000
  455       -2.942403     -2.942402   1.000000   1.000000
  456       -2.942403     -2.942402   1.000000   1.000000
  457       -2.942403     -2.942402   1.000000   1.000000
  458       -2.942403     -2.942402   1.000000   1.000000
  459       -2.921563     -2.921560   1.000000   1.000000
  460       -2.868344     -2.868342   1.000000   1.000000
  461       -2.868344     -2.868342   1.000000   1.000000
  462       -2.868344     -2.868342   1.000000   1.000000
  463       -2.868344     -2.868342   1.000000   1.000000
  464       -2.868328     -2.868327   1.000000   1.000000
  465       -2.868328     -2.868327   1.000000   1.000000
  466       -2.815005     -2.815008   1.000000   1.000000
  467       -2.815002     -2.815005   1.000000   1.000000
  468       -2.775805     -2.775803   1.000000   1.000000
  469       -2.775805     -2.775803   1.000000   1.000000
  470       -2.775805     -2.775803   1.000000   1.000000
  471       -2.775805     -2.775803   1.000000   1.000000
  472       -2.775792     -2.775790   1.000000   1.000000
  473       -2.775792     -2.775790   1.000000   1.000000
  474       -2.695269     -2.695267   1.000000   1.000000
  475       -2.695269     -2.695267   1.000000   1.000000
  476       -2.695268     -2.695267   1.000000   1.000000
  477       -2.695268     -2.695267   1.000000   1.000000
  478       -2.695268     -2.695267   1.000000   1.000000
  479       -2.695268     -2.695267   1.000000   1.000000
  480       -2.679152     -2.679148   1.000000   1.000000
  481       -2.601974     -2.601975   1.000000   1.000000
  482       -2.601974     -2.601975   1.000000   1.000000
  483       -2.601956     -2.601957   1.000000   1.000000
  484       -2.601956     -2.601957   1.000000   1.000000
  485       -2.601956     -2.601957   1.000000   1.000000
  486       -2.601956     -2.601957   1.000000   1.000000
  487       -2.556453     -2.556451   1.000000   1.000000
  488       -2.556453     -2.556451   1.000000   1.000000
  489       -2.556453     -2.556451   1.000000   1.000000
  490       -2.556453     -2.556451   1.000000   1.000000
  491       -2.556438     -2.556436   1.000000   1.000000
  492       -2.556438     -2.556436   1.000000   1.000000
  493       -2.479225     -2.479222   1.000000   1.000000
  494       -2.479225     -2.479222   1.000000   1.000000
  495       -2.479225     -2.479222   1.000000   1.000000
  496       -2.479225     -2.479222   1.000000   1.000000
  497       -2.479212     -2.479209   1.000000   1.000000
  498       -2.479212     -2.479209   1.000000   1.000000
  499       -2.238129     -2.238130   1.000000   1.000000
  500       -2.238129     -2.238130   1.000000   1.000000
  501       -2.238124     -2.238126   1.000000   1.000000
  502       -2.238124     -2.238126   1.000000   1.000000
  503       -2.238124     -2.238126   1.000000   1.000000
  504       -2.238124     -2.238126   1.000000   1.000000
  505       -2.161956     -2.161953   1.000000   1.000000
  506       -2.161956     -2.161953   1.000000   1.000000
  507       -2.161956     -2.161953   1.000000   1.000000
  508       -2.161956     -2.161953   1.000000   1.000000
  509       -2.161950     -2.161948   1.000000   1.000000
  510       -2.161950     -2.161948   1.000000   1.000000
  511       -2.104722     -2.104719   1.000000   1.000000
  512       -2.104722     -2.104719   1.000000   1.000000