<?xml version="1.0" encoding="ISO-8859-1"?>
<modeling>
 <generator>
  <i name="program" type="string">vasp </i>
  <i name="version" type="string">5.4.1  </i>
  <i name="subversion" type="string">05Feb16 (build Feb 01 2017 11:38:15) complex                          parallel </i>
  <i name="platform" type="string">IFC91_ompi </i>
  <i name="date" type="string">2025 10 20 </i>
  <i name="time" type="string">17:54:43 </i>
 </generator>
 <incar>
  <i type="string" name="SYSTEM"> MoS2 SOC SCF (high-res, 24x24x1)</i>
  <i type="int" name="ISTART">     1</i>
  <i type="string" name="PREC">accurate</i>
  <i type="string" name="ALGO"> All</i>
  <i type="logical" name="LSORBIT"> T  </i>
  <v name="SAXIS">      0.00000000      0.00000000      1.00000000</v>
  <i name="AMIX">      0.20000000</i>
  <i name="BMIX">      0.00010000</i>
  <i name="AMIX_MAG">      0.20000000</i>
  <i name="BMIX_MAG">      0.00010000</i>
  <i type="int" name="ICHARG">    11</i>
  <i type="int" name="NELM">   200</i>
  <i type="int" name="IBRION">    -1</i>
  <i name="EDIFF">      0.00000010</i>
  <i type="int" name="NSW">     0</i>
  <i type="int" name="ISIF">     2</i>
  <i type="int" name="ISYM">     0</i>
  <i name="ENCUT">    600.00000000</i>
  <i type="logical" name="LREAL"> F  </i>
  <i type="int" name="ISMEAR">     0</i>
  <i name="SIGMA">      0.03000000</i>
  <i type="int" name="NWRITE">     3</i>
  <i type="int" name="LMAXMIX">     4</i>
  <i type="logical" name="LWAVE"> T  </i>
  <i type="logical" name="LCHARG"> T  </i>
  <i type="logical" name="LASPH"> T  </i>
  <i type="logical" name="GGA_COMPAT"> F  </i>
  <v type="int" name="KPOINT_BSE">    -1     0     0     0</v>
  <i type="int" name="NELM">   200</i>
  <i type="logical" name="LDIPOL"> T  </i>
  <i type="int" name="IDIPOL">     3</i>
  <v name="DIPOL">      0.50000000      0.50000000      0.50000000</v>
  <i type="logical" name="LASPH"> T  </i>
 </incar>
 <kpoints>
  <generation param="Gamma">
   <v type="int" name="divisions">      24       24        1 </v>
   <v name="usershift">      0.00000000       0.00000000       0.00000000 </v>
   <v name="genvec1">      0.04166667       0.00000000       0.00000000 </v>
   <v name="genvec2">      0.00000000       0.04166667       0.00000000 </v>
   <v name="genvec3">      0.00000000       0.00000000       1.00000000 </v>
   <v name="shift">      0.00000000       0.00000000       0.00000000 </v>
  </generation>
  <varray name="kpointlist" >
   <v>       0.00000000       0.00000000       0.00000000 </v>
   <v>       0.04166667       0.00000000       0.00000000 </v>
   <v>       0.08333333       0.00000000       0.00000000 </v>
   <v>       0.12500000       0.00000000       0.00000000 </v>
   <v>       0.16666667      -0.00000000       0.00000000 </v>
   <v>       0.20833333       0.00000000       0.00000000 </v>
   <v>       0.25000000       0.00000000       0.00000000 </v>
   <v>       0.29166667       0.00000000       0.00000000 </v>
   <v>       0.33333333       0.00000000       0.00000000 </v>
   <v>       0.37500000      -0.00000000       0.00000000 </v>
   <v>       0.41666667       0.00000000       0.00000000 </v>
   <v>       0.45833333       0.00000000       0.00000000 </v>
   <v>       0.50000000       0.00000000       0.00000000 </v>
   <v>      -0.45833333      -0.00000000       0.00000000 </v>
   <v>      -0.41666667      -0.00000000       0.00000000 </v>
   <v>      -0.37500000       0.00000000       0.00000000 </v>
   <v>      -0.33333333       0.00000000       0.00000000 </v>
   <v>      -0.29166667       0.00000000       0.00000000 </v>
   <v>      -0.25000000      -0.00000000       0.00000000 </v>
   <v>      -0.20833333       0.00000000       0.00000000 </v>
   <v>      -0.16666667       0.00000000       0.00000000 </v>
   <v>      -0.12500000      -0.00000000       0.00000000 </v>
   <v>      -0.08333333      -0.00000000       0.00000000 </v>
   <v>      -0.04166667      -0.00000000       0.00000000 </v>
   <v>       0.00000000       0.04166667       0.00000000 </v>
   <v>       0.04166667       0.04166667       0.00000000 </v>
   <v>       0.08333333       0.04166667       0.00000000 </v>
   <v>       0.12500000       0.04166667       0.00000000 </v>
   <v>       0.16666667       0.04166667       0.00000000 </v>
   <v>       0.20833333       0.04166667       0.00000000 </v>
   <v>       0.25000000       0.04166667       0.00000000 </v>
   <v>       0.29166667       0.04166667       0.00000000 </v>
   <v>       0.33333333       0.04166667       0.00000000 </v>
   <v>       0.37500000       0.04166667       0.00000000 </v>
   <v>       0.41666667       0.04166667       0.00000000 </v>
   <v>       0.45833333       0.04166667       0.00000000 </v>
   <v>       0.50000000       0.04166667       0.00000000 </v>
   <v>      -0.45833333       0.04166667       0.00000000 </v>
   <v>      -0.41666667       0.04166667       0.00000000 </v>
   <v>      -0.37500000       0.04166667       0.00000000 </v>
   <v>      -0.33333333       0.04166667       0.00000000 </v>
   <v>      -0.29166667       0.04166667       0.00000000 </v>
   <v>      -0.25000000       0.04166667       0.00000000 </v>
   <v>      -0.20833333       0.04166667       0.00000000 </v>
   <v>      -0.16666667       0.04166667       0.00000000 </v>
   <v>      -0.12500000       0.04166667       0.00000000 </v>
   <v>      -0.08333333       0.04166667       0.00000000 </v>
   <v>      -0.04166667       0.04166667       0.00000000 </v>
   <v>       0.00000000       0.08333333       0.00000000 </v>
   <v>       0.04166667       0.08333333       0.00000000 </v>
   <v>       0.08333333       0.08333333       0.00000000 </v>
   <v>       0.12500000       0.08333333       0.00000000 </v>
   <v>       0.16666667       0.08333333       0.00000000 </v>
   <v>       0.20833333       0.08333333       0.00000000 </v>
   <v>       0.25000000       0.08333333       0.00000000 </v>
   <v>       0.29166667       0.08333333       0.00000000 </v>
   <v>       0.33333333       0.08333333       0.00000000 </v>
   <v>       0.37500000       0.08333333       0.00000000 </v>
   <v>       0.41666667       0.08333333       0.00000000 </v>
   <v>       0.45833333       0.08333333       0.00000000 </v>
   <v>       0.50000000       0.08333333       0.00000000 </v>
   <v>      -0.45833333       0.08333333       0.00000000 </v>
   <v>      -0.41666667       0.08333333       0.00000000 </v>
   <v>      -0.37500000       0.08333333       0.00000000 </v>
   <v>      -0.33333333       0.08333333       0.00000000 </v>
   <v>      -0.29166667       0.08333333       0.00000000 </v>
   <v>      -0.25000000       0.08333333       0.00000000 </v>
   <v>      -0.20833333       0.08333333       0.00000000 </v>
   <v>      -0.16666667       0.08333333       0.00000000 </v>
   <v>      -0.12500000       0.08333333       0.00000000 </v>
   <v>      -0.08333333       0.08333333       0.00000000 </v>
   <v>      -0.04166667       0.08333333       0.00000000 </v>
   <v>       0.00000000       0.12500000       0.00000000 </v>
   <v>       0.04166667       0.12500000       0.00000000 </v>
   <v>       0.08333333       0.12500000       0.00000000 </v>
   <v>       0.12500000       0.12500000       0.00000000 </v>
   <v>       0.16666667       0.12500000       0.00000000 </v>
   <v>       0.20833333       0.12500000       0.00000000 </v>
   <v>       0.25000000       0.12500000       0.00000000 </v>
   <v>       0.29166667       0.12500000       0.00000000 </v>
   <v>       0.33333333       0.12500000       0.00000000 </v>
   <v>       0.37500000       0.12500000       0.00000000 </v>
   <v>       0.41666667       0.12500000       0.00000000 </v>
   <v>       0.45833333       0.12500000       0.00000000 </v>
   <v>       0.50000000       0.12500000       0.00000000 </v>
   <v>      -0.45833333       0.12500000       0.00000000 </v>
   <v>      -0.41666667       0.12500000       0.00000000 </v>
   <v>      -0.37500000       0.12500000       0.00000000 </v>
   <v>      -0.33333333       0.12500000       0.00000000 </v>
   <v>      -0.29166667       0.12500000       0.00000000 </v>
   <v>      -0.25000000       0.12500000       0.00000000 </v>
   <v>      -0.20833333       0.12500000       0.00000000 </v>
   <v>      -0.16666667       0.12500000       0.00000000 </v>
   <v>      -0.12500000       0.12500000       0.00000000 </v>
   <v>      -0.08333333       0.12500000       0.00000000 </v>
   <v>      -0.04166667       0.12500000       0.00000000 </v>
   <v>      -0.00000000       0.16666667       0.00000000 </v>
   <v>       0.04166667       0.16666667       0.00000000 </v>
   <v>       0.08333333       0.16666667       0.00000000 </v>
   <v>       0.12500000       0.16666667       0.00000000 </v>
   <v>       0.16666667       0.16666667       0.00000000 </v>
   <v>       0.20833333       0.16666667       0.00000000 </v>
   <v>       0.25000000       0.16666667       0.00000000 </v>
   <v>       0.29166667       0.16666667       0.00000000 </v>
   <v>       0.33333333       0.16666667       0.00000000 </v>
   <v>       0.37500000       0.16666667       0.00000000 </v>
   <v>       0.41666667       0.16666667       0.00000000 </v>
   <v>       0.45833333       0.16666667       0.00000000 </v>
   <v>       0.50000000       0.16666667       0.00000000 </v>
   <v>      -0.45833333       0.16666667       0.00000000 </v>
   <v>      -0.41666667       0.16666667       0.00000000 </v>
   <v>      -0.37500000       0.16666667       0.00000000 </v>
   <v>      -0.33333333       0.16666667       0.00000000 </v>
   <v>      -0.29166667       0.16666667       0.00000000 </v>
   <v>      -0.25000000       0.16666667       0.00000000 </v>
   <v>      -0.20833333       0.16666667       0.00000000 </v>
   <v>      -0.16666667       0.16666667       0.00000000 </v>
   <v>      -0.12500000       0.16666667       0.00000000 </v>
   <v>      -0.08333333       0.16666667       0.00000000 </v>
   <v>      -0.04166667       0.16666667       0.00000000 </v>
   <v>       0.00000000       0.20833333       0.00000000 </v>
   <v>       0.04166667       0.20833333       0.00000000 </v>
   <v>       0.08333333       0.20833333       0.00000000 </v>
   <v>       0.12500000       0.20833333       0.00000000 </v>
   <v>       0.16666667       0.20833333       0.00000000 </v>
   <v>       0.20833333       0.20833333       0.00000000 </v>
   <v>       0.25000000       0.20833333       0.00000000 </v>
   <v>       0.29166667       0.20833333       0.00000000 </v>
   <v>       0.33333333       0.20833333       0.00000000 </v>
   <v>       0.37500000       0.20833333       0.00000000 </v>
   <v>       0.41666667       0.20833333       0.00000000 </v>
   <v>       0.45833333       0.20833333       0.00000000 </v>
   <v>       0.50000000       0.20833333       0.00000000 </v>
   <v>      -0.45833333       0.20833333       0.00000000 </v>
   <v>      -0.41666667       0.20833333       0.00000000 </v>
   <v>      -0.37500000       0.20833333       0.00000000 </v>
   <v>      -0.33333333       0.20833333       0.00000000 </v>
   <v>      -0.29166667       0.20833333       0.00000000 </v>
   <v>      -0.25000000       0.20833333       0.00000000 </v>
   <v>      -0.20833333       0.20833333       0.00000000 </v>
   <v>      -0.16666667       0.20833333       0.00000000 </v>
   <v>      -0.12500000       0.20833333       0.00000000 </v>
   <v>      -0.08333333       0.20833333       0.00000000 </v>
   <v>      -0.04166667       0.20833333       0.00000000 </v>
   <v>       0.00000000       0.25000000       0.00000000 </v>
   <v>       0.04166667       0.25000000       0.00000000 </v>
   <v>       0.08333333       0.25000000       0.00000000 </v>
   <v>       0.12500000       0.25000000       0.00000000 </v>
   <v>       0.16666667       0.25000000       0.00000000 </v>
   <v>       0.20833333       0.25000000       0.00000000 </v>
   <v>       0.25000000       0.25000000       0.00000000 </v>
   <v>       0.29166667       0.25000000       0.00000000 </v>
   <v>       0.33333333       0.25000000       0.00000000 </v>
   <v>       0.37500000       0.25000000       0.00000000 </v>
   <v>       0.41666667       0.25000000       0.00000000 </v>
   <v>       0.45833333       0.25000000       0.00000000 </v>
   <v>       0.50000000       0.25000000       0.00000000 </v>
   <v>      -0.45833333       0.25000000       0.00000000 </v>
   <v>      -0.41666667       0.25000000       0.00000000 </v>
   <v>      -0.37500000       0.25000000       0.00000000 </v>
   <v>      -0.33333333       0.25000000       0.00000000 </v>
   <v>      -0.29166667       0.25000000       0.00000000 </v>
   <v>      -0.25000000       0.25000000       0.00000000 </v>
   <v>      -0.20833333       0.25000000       0.00000000 </v>
   <v>      -0.16666667       0.25000000       0.00000000 </v>
   <v>      -0.12500000       0.25000000       0.00000000 </v>
   <v>      -0.08333333       0.25000000       0.00000000 </v>
   <v>      -0.04166667       0.25000000       0.00000000 </v>
   <v>       0.00000000       0.29166667       0.00000000 </v>
   <v>       0.04166667       0.29166667       0.00000000 </v>
   <v>       0.08333333       0.29166667       0.00000000 </v>
   <v>       0.12500000       0.29166667       0.00000000 </v>
   <v>       0.16666667       0.29166667       0.00000000 </v>
   <v>       0.20833333       0.29166667       0.00000000 </v>
   <v>       0.25000000       0.29166667       0.00000000 </v>
   <v>       0.29166667       0.29166667       0.00000000 </v>
   <v>       0.33333333       0.29166667       0.00000000 </v>
   <v>       0.37500000       0.29166667       0.00000000 </v>
   <v>       0.41666667       0.29166667       0.00000000 </v>
   <v>       0.45833333       0.29166667       0.00000000 </v>
   <v>       0.50000000       0.29166667       0.00000000 </v>
   <v>      -0.45833333       0.29166667       0.00000000 </v>
   <v>      -0.41666667       0.29166667       0.00000000 </v>
   <v>      -0.37500000       0.29166667       0.00000000 </v>
   <v>      -0.33333333       0.29166667       0.00000000 </v>
   <v>      -0.29166667       0.29166667       0.00000000 </v>
   <v>      -0.25000000       0.29166667       0.00000000 </v>
   <v>      -0.20833333       0.29166667       0.00000000 </v>
   <v>      -0.16666667       0.29166667       0.00000000 </v>
   <v>      -0.12500000       0.29166667       0.00000000 </v>
   <v>      -0.08333333       0.29166667       0.00000000 </v>
   <v>      -0.04166667       0.29166667       0.00000000 </v>
   <v>       0.00000000       0.33333333       0.00000000 </v>
   <v>       0.04166667       0.33333333       0.00000000 </v>
   <v>       0.08333333       0.33333333       0.00000000 </v>
   <v>       0.12500000       0.33333333       0.00000000 </v>
   <v>       0.16666667       0.33333333       0.00000000 </v>
   <v>       0.20833333       0.33333333       0.00000000 </v>
   <v>       0.25000000       0.33333333       0.00000000 </v>
   <v>       0.29166667       0.33333333       0.00000000 </v>
   <v>       0.33333333       0.33333333       0.00000000 </v>
   <v>       0.37500000       0.33333333       0.00000000 </v>
   <v>       0.41666667       0.33333333       0.00000000 </v>
   <v>       0.45833333       0.33333333       0.00000000 </v>
   <v>       0.50000000       0.33333333       0.00000000 </v>
   <v>      -0.45833333       0.33333333       0.00000000 </v>
   <v>      -0.41666667       0.33333333       0.00000000 </v>
   <v>      -0.37500000       0.33333333       0.00000000 </v>
   <v>      -0.33333333       0.33333333       0.00000000 </v>
   <v>      -0.29166667       0.33333333       0.00000000 </v>
   <v>      -0.25000000       0.33333333       0.00000000 </v>
   <v>      -0.20833333       0.33333333       0.00000000 </v>
   <v>      -0.16666667       0.33333333       0.00000000 </v>
   <v>      -0.12500000       0.33333333       0.00000000 </v>
   <v>      -0.08333333       0.33333333       0.00000000 </v>
   <v>      -0.04166667       0.33333333       0.00000000 </v>
   <v>      -0.00000000       0.37500000       0.00000000 </v>
   <v>       0.04166667       0.37500000       0.00000000 </v>
   <v>       0.08333333       0.37500000       0.00000000 </v>
   <v>       0.12500000       0.37500000       0.00000000 </v>
   <v>       0.16666667       0.37500000       0.00000000 </v>
   <v>       0.20833333       0.37500000       0.00000000 </v>
   <v>       0.25000000       0.37500000       0.00000000 </v>
   <v>       0.29166667       0.37500000       0.00000000 </v>
   <v>       0.33333333       0.37500000       0.00000000 </v>
   <v>       0.37500000       0.37500000       0.00000000 </v>
   <v>       0.41666667       0.37500000       0.00000000 </v>
   <v>       0.45833333       0.37500000       0.00000000 </v>
   <v>       0.50000000       0.37500000       0.00000000 </v>
   <v>      -0.45833333       0.37500000       0.00000000 </v>
   <v>      -0.41666667       0.37500000       0.00000000 </v>
   <v>      -0.37500000       0.37500000       0.00000000 </v>
   <v>      -0.33333333       0.37500000       0.00000000 </v>
   <v>      -0.29166667       0.37500000       0.00000000 </v>
   <v>      -0.25000000       0.37500000       0.00000000 </v>
   <v>      -0.20833333       0.37500000       0.00000000 </v>
   <v>      -0.16666667       0.37500000       0.00000000 </v>
   <v>      -0.12500000       0.37500000       0.00000000 </v>
   <v>      -0.08333333       0.37500000       0.00000000 </v>
   <v>      -0.04166667       0.37500000       0.00000000 </v>
   <v>       0.00000000       0.41666667       0.00000000 </v>
   <v>       0.04166667       0.41666667       0.00000000 </v>
   <v>       0.08333333       0.41666667       0.00000000 </v>
   <v>       0.12500000       0.41666667       0.00000000 </v>
   <v>       0.16666667       0.41666667       0.00000000 </v>
   <v>       0.20833333       0.41666667       0.00000000 </v>
   <v>       0.25000000       0.41666667       0.00000000 </v>
   <v>       0.29166667       0.41666667       0.00000000 </v>
   <v>       0.33333333       0.41666667       0.00000000 </v>
   <v>       0.37500000       0.41666667       0.00000000 </v>
   <v>       0.41666667       0.41666667       0.00000000 </v>
   <v>       0.45833333       0.41666667       0.00000000 </v>
   <v>       0.50000000       0.41666667       0.00000000 </v>
   <v>      -0.45833333       0.41666667       0.00000000 </v>
   <v>      -0.41666667       0.41666667       0.00000000 </v>
   <v>      -0.37500000       0.41666667       0.00000000 </v>
   <v>      -0.33333333       0.41666667       0.00000000 </v>
   <v>      -0.29166667       0.41666667       0.00000000 </v>
   <v>      -0.25000000       0.41666667       0.00000000 </v>
   <v>      -0.20833333       0.41666667       0.00000000 </v>
   <v>      -0.16666667       0.41666667       0.00000000 </v>
   <v>      -0.12500000       0.41666667       0.00000000 </v>
   <v>      -0.08333333       0.41666667       0.00000000 </v>
   <v>      -0.04166667       0.41666667       0.00000000 </v>
   <v>       0.00000000       0.45833333       0.00000000 </v>
   <v>       0.04166667       0.45833333       0.00000000 </v>
   <v>       0.08333333       0.45833333       0.00000000 </v>
   <v>       0.12500000       0.45833333       0.00000000 </v>
   <v>       0.16666667       0.45833333       0.00000000 </v>
   <v>       0.20833333       0.45833333       0.00000000 </v>
   <v>       0.25000000       0.45833333       0.00000000 </v>
   <v>       0.29166667       0.45833333       0.00000000 </v>
   <v>       0.33333333       0.45833333       0.00000000 </v>
   <v>       0.37500000       0.45833333       0.00000000 </v>
   <v>       0.41666667       0.45833333       0.00000000 </v>
   <v>       0.45833333       0.45833333       0.00000000 </v>
   <v>       0.50000000       0.45833333       0.00000000 </v>
   <v>      -0.45833333       0.45833333       0.00000000 </v>
   <v>      -0.41666667       0.45833333       0.00000000 </v>
   <v>      -0.37500000       0.45833333       0.00000000 </v>
   <v>      -0.33333333       0.45833333       0.00000000 </v>
   <v>      -0.29166667       0.45833333       0.00000000 </v>
   <v>      -0.25000000       0.45833333       0.00000000 </v>
   <v>      -0.20833333       0.45833333       0.00000000 </v>
   <v>      -0.16666667       0.45833333       0.00000000 </v>
   <v>      -0.12500000       0.45833333       0.00000000 </v>
   <v>      -0.08333333       0.45833333       0.00000000 </v>
   <v>      -0.04166667       0.45833333       0.00000000 </v>
   <v>       0.00000000       0.50000000       0.00000000 </v>
   <v>       0.04166667       0.50000000       0.00000000 </v>
   <v>       0.08333333       0.50000000       0.00000000 </v>
   <v>       0.12500000       0.50000000       0.00000000 </v>
   <v>       0.16666667       0.50000000       0.00000000 </v>
   <v>       0.20833333       0.50000000       0.00000000 </v>
   <v>       0.25000000       0.50000000       0.00000000 </v>
   <v>       0.29166667       0.50000000       0.00000000 </v>
   <v>       0.33333333       0.50000000       0.00000000 </v>
   <v>       0.37500000       0.50000000       0.00000000 </v>
   <v>       0.41666667       0.50000000       0.00000000 </v>
   <v>       0.45833333       0.50000000       0.00000000 </v>
   <v>       0.50000000       0.50000000       0.00000000 </v>
   <v>      -0.45833333       0.50000000       0.00000000 </v>
   <v>      -0.41666667       0.50000000       0.00000000 </v>
   <v>      -0.37500000       0.50000000       0.00000000 </v>
   <v>      -0.33333333       0.50000000       0.00000000 </v>
   <v>      -0.29166667       0.50000000       0.00000000 </v>
   <v>      -0.25000000       0.50000000       0.00000000 </v>
   <v>      -0.20833333       0.50000000       0.00000000 </v>
   <v>      -0.16666667       0.50000000       0.00000000 </v>
   <v>      -0.12500000       0.50000000       0.00000000 </v>
   <v>      -0.08333333       0.50000000       0.00000000 </v>
   <v>      -0.04166667       0.50000000       0.00000000 </v>
   <v>      -0.00000000      -0.45833333       0.00000000 </v>
   <v>       0.04166667      -0.45833333       0.00000000 </v>
   <v>       0.08333333      -0.45833333       0.00000000 </v>
   <v>       0.12500000      -0.45833333       0.00000000 </v>
   <v>       0.16666667      -0.45833333       0.00000000 </v>
   <v>       0.20833333      -0.45833333       0.00000000 </v>
   <v>       0.25000000      -0.45833333       0.00000000 </v>
   <v>       0.29166667      -0.45833333       0.00000000 </v>
   <v>       0.33333333      -0.45833333       0.00000000 </v>
   <v>       0.37500000      -0.45833333       0.00000000 </v>
   <v>       0.41666667      -0.45833333       0.00000000 </v>
   <v>       0.45833333      -0.45833333       0.00000000 </v>
   <v>       0.50000000      -0.45833333       0.00000000 </v>
   <v>      -0.45833333      -0.45833333       0.00000000 </v>
   <v>      -0.41666667      -0.45833333       0.00000000 </v>
   <v>      -0.37500000      -0.45833333       0.00000000 </v>
   <v>      -0.33333333      -0.45833333       0.00000000 </v>
   <v>      -0.29166667      -0.45833333       0.00000000 </v>
   <v>      -0.25000000      -0.45833333       0.00000000 </v>
   <v>      -0.20833333      -0.45833333       0.00000000 </v>
   <v>      -0.16666667      -0.45833333       0.00000000 </v>
   <v>      -0.12500000      -0.45833333       0.00000000 </v>
   <v>      -0.08333333      -0.45833333       0.00000000 </v>
   <v>      -0.04166667      -0.45833333       0.00000000 </v>
   <v>      -0.00000000      -0.41666667       0.00000000 </v>
   <v>       0.04166667      -0.41666667       0.00000000 </v>
   <v>       0.08333333      -0.41666667       0.00000000 </v>
   <v>       0.12500000      -0.41666667       0.00000000 </v>
   <v>       0.16666667      -0.41666667       0.00000000 </v>
   <v>       0.20833333      -0.41666667       0.00000000 </v>
   <v>       0.25000000      -0.41666667       0.00000000 </v>
   <v>       0.29166667      -0.41666667       0.00000000 </v>
   <v>       0.33333333      -0.41666667       0.00000000 </v>
   <v>       0.37500000      -0.41666667       0.00000000 </v>
   <v>       0.41666667      -0.41666667       0.00000000 </v>
   <v>       0.45833333      -0.41666667       0.00000000 </v>
   <v>       0.50000000      -0.41666667       0.00000000 </v>
   <v>      -0.45833333      -0.41666667       0.00000000 </v>
   <v>      -0.41666667      -0.41666667       0.00000000 </v>
   <v>      -0.37500000      -0.41666667       0.00000000 </v>
   <v>      -0.33333333      -0.41666667       0.00000000 </v>
   <v>      -0.29166667      -0.41666667       0.00000000 </v>
   <v>      -0.25000000      -0.41666667       0.00000000 </v>
   <v>      -0.20833333      -0.41666667       0.00000000 </v>
   <v>      -0.16666667      -0.41666667       0.00000000 </v>
   <v>      -0.12500000      -0.41666667       0.00000000 </v>
   <v>      -0.08333333      -0.41666667       0.00000000 </v>
   <v>      -0.04166667      -0.41666667       0.00000000 </v>
   <v>       0.00000000      -0.37500000       0.00000000 </v>
   <v>       0.04166667      -0.37500000       0.00000000 </v>
   <v>       0.08333333      -0.37500000       0.00000000 </v>
   <v>       0.12500000      -0.37500000       0.00000000 </v>
   <v>       0.16666667      -0.37500000       0.00000000 </v>
   <v>       0.20833333      -0.37500000       0.00000000 </v>
   <v>       0.25000000      -0.37500000       0.00000000 </v>
   <v>       0.29166667      -0.37500000       0.00000000 </v>
   <v>       0.33333333      -0.37500000       0.00000000 </v>
   <v>       0.37500000      -0.37500000       0.00000000 </v>
   <v>       0.41666667      -0.37500000       0.00000000 </v>
   <v>       0.45833333      -0.37500000       0.00000000 </v>
   <v>       0.50000000      -0.37500000       0.00000000 </v>
   <v>      -0.45833333      -0.37500000       0.00000000 </v>
   <v>      -0.41666667      -0.37500000       0.00000000 </v>
   <v>      -0.37500000      -0.37500000       0.00000000 </v>
   <v>      -0.33333333      -0.37500000       0.00000000 </v>
   <v>      -0.29166667      -0.37500000       0.00000000 </v>
   <v>      -0.25000000      -0.37500000       0.00000000 </v>
   <v>      -0.20833333      -0.37500000       0.00000000 </v>
   <v>      -0.16666667      -0.37500000       0.00000000 </v>
   <v>      -0.12500000      -0.37500000       0.00000000 </v>
   <v>      -0.08333333      -0.37500000       0.00000000 </v>
   <v>      -0.04166667      -0.37500000       0.00000000 </v>
   <v>       0.00000000      -0.33333333       0.00000000 </v>
   <v>       0.04166667      -0.33333333       0.00000000 </v>
   <v>       0.08333333      -0.33333333       0.00000000 </v>
   <v>       0.12500000      -0.33333333       0.00000000 </v>
   <v>       0.16666667      -0.33333333       0.00000000 </v>
   <v>       0.20833333      -0.33333333       0.00000000 </v>
   <v>       0.25000000      -0.33333333       0.00000000 </v>
   <v>       0.29166667      -0.33333333       0.00000000 </v>
   <v>       0.33333333      -0.33333333       0.00000000 </v>
   <v>       0.37500000      -0.33333333       0.00000000 </v>
   <v>       0.41666667      -0.33333333       0.00000000 </v>
   <v>       0.45833333      -0.33333333       0.00000000 </v>
   <v>       0.50000000      -0.33333333       0.00000000 </v>
   <v>      -0.45833333      -0.33333333       0.00000000 </v>
   <v>      -0.41666667      -0.33333333       0.00000000 </v>
   <v>      -0.37500000      -0.33333333       0.00000000 </v>
   <v>      -0.33333333      -0.33333333       0.00000000 </v>
   <v>      -0.29166667      -0.33333333       0.00000000 </v>
   <v>      -0.25000000      -0.33333333       0.00000000 </v>
   <v>      -0.20833333      -0.33333333       0.00000000 </v>
   <v>      -0.16666667      -0.33333333       0.00000000 </v>
   <v>      -0.12500000      -0.33333333       0.00000000 </v>
   <v>      -0.08333333      -0.33333333       0.00000000 </v>
   <v>      -0.04166667      -0.33333333       0.00000000 </v>
   <v>       0.00000000      -0.29166667       0.00000000 </v>
   <v>       0.04166667      -0.29166667       0.00000000 </v>
   <v>       0.08333333      -0.29166667       0.00000000 </v>
   <v>       0.12500000      -0.29166667       0.00000000 </v>
   <v>       0.16666667      -0.29166667       0.00000000 </v>
   <v>       0.20833333      -0.29166667       0.00000000 </v>
   <v>       0.25000000      -0.29166667       0.00000000 </v>
   <v>       0.29166667      -0.29166667       0.00000000 </v>
   <v>       0.33333333      -0.29166667       0.00000000 </v>
   <v>       0.37500000      -0.29166667       0.00000000 </v>
   <v>       0.41666667      -0.29166667       0.00000000 </v>
   <v>       0.45833333      -0.29166667       0.00000000 </v>
   <v>       0.50000000      -0.29166667       0.00000000 </v>
   <v>      -0.45833333      -0.29166667       0.00000000 </v>
   <v>      -0.41666667      -0.29166667       0.00000000 </v>
   <v>      -0.37500000      -0.29166667       0.00000000 </v>
   <v>      -0.33333333      -0.29166667       0.00000000 </v>
   <v>      -0.29166667      -0.29166667       0.00000000 </v>
   <v>      -0.25000000      -0.29166667       0.00000000 </v>
   <v>      -0.20833333      -0.29166667       0.00000000 </v>
   <v>      -0.16666667      -0.29166667       0.00000000 </v>
   <v>      -0.12500000      -0.29166667       0.00000000 </v>
   <v>      -0.08333333      -0.29166667       0.00000000 </v>
   <v>      -0.04166667      -0.29166667       0.00000000 </v>
   <v>      -0.00000000      -0.25000000       0.00000000 </v>
   <v>       0.04166667      -0.25000000       0.00000000 </v>
   <v>       0.08333333      -0.25000000       0.00000000 </v>
   <v>       0.12500000      -0.25000000       0.00000000 </v>
   <v>       0.16666667      -0.25000000       0.00000000 </v>
   <v>       0.20833333      -0.25000000       0.00000000 </v>
   <v>       0.25000000      -0.25000000       0.00000000 </v>
   <v>       0.29166667      -0.25000000       0.00000000 </v>
   <v>       0.33333333      -0.25000000       0.00000000 </v>
   <v>       0.37500000      -0.25000000       0.00000000 </v>
   <v>       0.41666667      -0.25000000       0.00000000 </v>
   <v>       0.45833333      -0.25000000       0.00000000 </v>
   <v>       0.50000000      -0.25000000       0.00000000 </v>
   <v>      -0.45833333      -0.25000000       0.00000000 </v>
   <v>      -0.41666667      -0.25000000       0.00000000 </v>
   <v>      -0.37500000      -0.25000000       0.00000000 </v>
   <v>      -0.33333333      -0.25000000       0.00000000 </v>
   <v>      -0.29166667      -0.25000000       0.00000000 </v>
   <v>      -0.25000000      -0.25000000       0.00000000 </v>
   <v>      -0.20833333      -0.25000000       0.00000000 </v>
   <v>      -0.16666667      -0.25000000       0.00000000 </v>
   <v>      -0.12500000      -0.25000000       0.00000000 </v>
   <v>      -0.08333333      -0.25000000       0.00000000 </v>
   <v>      -0.04166667      -0.25000000       0.00000000 </v>
   <v>       0.00000000      -0.20833333       0.00000000 </v>
   <v>       0.04166667      -0.20833333       0.00000000 </v>
   <v>       0.08333333      -0.20833333       0.00000000 </v>
   <v>       0.12500000      -0.20833333       0.00000000 </v>
   <v>       0.16666667      -0.20833333       0.00000000 </v>
   <v>       0.20833333      -0.20833333       0.00000000 </v>
   <v>       0.25000000      -0.20833333       0.00000000 </v>
   <v>       0.29166667      -0.20833333       0.00000000 </v>
   <v>       0.33333333      -0.20833333       0.00000000 </v>
   <v>       0.37500000      -0.20833333       0.00000000 </v>
   <v>       0.41666667      -0.20833333       0.00000000 </v>
   <v>       0.45833333      -0.20833333       0.00000000 </v>
   <v>       0.50000000      -0.20833333       0.00000000 </v>
   <v>      -0.45833333      -0.20833333       0.00000000 </v>
   <v>      -0.41666667      -0.20833333       0.00000000 </v>
   <v>      -0.37500000      -0.20833333       0.00000000 </v>
   <v>      -0.33333333      -0.20833333       0.00000000 </v>
   <v>      -0.29166667      -0.20833333       0.00000000 </v>
   <v>      -0.25000000      -0.20833333       0.00000000 </v>
   <v>      -0.20833333      -0.20833333       0.00000000 </v>
   <v>      -0.16666667      -0.20833333       0.00000000 </v>
   <v>      -0.12500000      -0.20833333       0.00000000 </v>
   <v>      -0.08333333      -0.20833333       0.00000000 </v>
   <v>      -0.04166667      -0.20833333       0.00000000 </v>
   <v>       0.00000000      -0.16666667       0.00000000 </v>
   <v>       0.04166667      -0.16666667       0.00000000 </v>
   <v>       0.08333333      -0.16666667       0.00000000 </v>
   <v>       0.12500000      -0.16666667       0.00000000 </v>
   <v>       0.16666667      -0.16666667       0.00000000 </v>
   <v>       0.20833333      -0.16666667       0.00000000 </v>
   <v>       0.25000000      -0.16666667       0.00000000 </v>
   <v>       0.29166667      -0.16666667       0.00000000 </v>
   <v>       0.33333333      -0.16666667       0.00000000 </v>
   <v>       0.37500000      -0.16666667       0.00000000 </v>
   <v>       0.41666667      -0.16666667       0.00000000 </v>
   <v>       0.45833333      -0.16666667       0.00000000 </v>
   <v>       0.50000000      -0.16666667       0.00000000 </v>
   <v>      -0.45833333      -0.16666667       0.00000000 </v>
   <v>      -0.41666667      -0.16666667       0.00000000 </v>
   <v>      -0.37500000      -0.16666667       0.00000000 </v>
   <v>      -0.33333333      -0.16666667       0.00000000 </v>
   <v>      -0.29166667      -0.16666667       0.00000000 </v>
   <v>      -0.25000000      -0.16666667       0.00000000 </v>
   <v>      -0.20833333      -0.16666667       0.00000000 </v>
   <v>      -0.16666667      -0.16666667       0.00000000 </v>
   <v>      -0.12500000      -0.16666667       0.00000000 </v>
   <v>      -0.08333333      -0.16666667       0.00000000 </v>
   <v>      -0.04166667      -0.16666667       0.00000000 </v>
   <v>      -0.00000000      -0.12500000       0.00000000 </v>
   <v>       0.04166667      -0.12500000       0.00000000 </v>
   <v>       0.08333333      -0.12500000       0.00000000 </v>
   <v>       0.12500000      -0.12500000       0.00000000 </v>
   <v>       0.16666667      -0.12500000       0.00000000 </v>
   <v>       0.20833333      -0.12500000       0.00000000 </v>
   <v>       0.25000000      -0.12500000       0.00000000 </v>
   <v>       0.29166667      -0.12500000       0.00000000 </v>
   <v>       0.33333333      -0.12500000       0.00000000 </v>
   <v>       0.37500000      -0.12500000       0.00000000 </v>
   <v>       0.41666667      -0.12500000       0.00000000 </v>
   <v>       0.45833333      -0.12500000       0.00000000 </v>
   <v>       0.50000000      -0.12500000       0.00000000 </v>
   <v>      -0.45833333      -0.12500000       0.00000000 </v>
   <v>      -0.41666667      -0.12500000       0.00000000 </v>
   <v>      -0.37500000      -0.12500000       0.00000000 </v>
   <v>      -0.33333333      -0.12500000       0.00000000 </v>
   <v>      -0.29166667      -0.12500000       0.00000000 </v>
   <v>      -0.25000000      -0.12500000       0.00000000 </v>
   <v>      -0.20833333      -0.12500000       0.00000000 </v>
   <v>      -0.16666667      -0.12500000       0.00000000 </v>
   <v>      -0.12500000      -0.12500000       0.00000000 </v>
   <v>      -0.08333333      -0.12500000       0.00000000 </v>
   <v>      -0.04166667      -0.12500000       0.00000000 </v>
   <v>      -0.00000000      -0.08333333       0.00000000 </v>
   <v>       0.04166667      -0.08333333       0.00000000 </v>
   <v>       0.08333333      -0.08333333       0.00000000 </v>
   <v>       0.12500000      -0.08333333       0.00000000 </v>
   <v>       0.16666667      -0.08333333       0.00000000 </v>
   <v>       0.20833333      -0.08333333       0.00000000 </v>
   <v>       0.25000000      -0.08333333       0.00000000 </v>
   <v>       0.29166667      -0.08333333       0.00000000 </v>
   <v>       0.33333333      -0.08333333       0.00000000 </v>
   <v>       0.37500000      -0.08333333       0.00000000 </v>
   <v>       0.41666667      -0.08333333       0.00000000 </v>
   <v>       0.45833333      -0.08333333       0.00000000 </v>
   <v>       0.50000000      -0.08333333       0.00000000 </v>
   <v>      -0.45833333      -0.08333333       0.00000000 </v>
   <v>      -0.41666667      -0.08333333       0.00000000 </v>
   <v>      -0.37500000      -0.08333333       0.00000000 </v>
   <v>      -0.33333333      -0.08333333       0.00000000 </v>
   <v>      -0.29166667      -0.08333333       0.00000000 </v>
   <v>      -0.25000000      -0.08333333       0.00000000 </v>
   <v>      -0.20833333      -0.08333333       0.00000000 </v>
   <v>      -0.16666667      -0.08333333       0.00000000 </v>
   <v>      -0.12500000      -0.08333333       0.00000000 </v>
   <v>      -0.08333333      -0.08333333       0.00000000 </v>
   <v>      -0.04166667      -0.08333333       0.00000000 </v>
   <v>      -0.00000000      -0.04166667       0.00000000 </v>
   <v>       0.04166667      -0.04166667       0.00000000 </v>
   <v>       0.08333333      -0.04166667       0.00000000 </v>
   <v>       0.12500000      -0.04166667       0.00000000 </v>
   <v>       0.16666667      -0.04166667       0.00000000 </v>
   <v>       0.20833333      -0.04166667       0.00000000 </v>
   <v>       0.25000000      -0.04166667       0.00000000 </v>
   <v>       0.29166667      -0.04166667       0.00000000 </v>
   <v>       0.33333333      -0.04166667       0.00000000 </v>
   <v>       0.37500000      -0.04166667       0.00000000 </v>
   <v>       0.41666667      -0.04166667       0.00000000 </v>
   <v>       0.45833333      -0.04166667       0.00000000 </v>
   <v>       0.50000000      -0.04166667       0.00000000 </v>
   <v>      -0.45833333      -0.04166667       0.00000000 </v>
   <v>      -0.41666667      -0.04166667       0.00000000 </v>
   <v>      -0.37500000      -0.04166667       0.00000000 </v>
   <v>      -0.33333333      -0.04166667       0.00000000 </v>
   <v>      -0.29166667      -0.04166667       0.00000000 </v>
   <v>      -0.25000000      -0.04166667       0.00000000 </v>
   <v>      -0.20833333      -0.04166667       0.00000000 </v>
   <v>      -0.16666667      -0.04166667       0.00000000 </v>
   <v>      -0.12500000      -0.04166667       0.00000000 </v>
   <v>      -0.08333333      -0.04166667       0.00000000 </v>
   <v>      -0.04166667      -0.04166667       0.00000000 </v>
  </varray>
  <varray name="weights" >
   <v>       0.00173611 </v>
   <v>       0.00173611 </v>
   <v>       0.00173611 </v>
   <v>       0.00173611 </v>
   <v>       0.00173611 </v>
   <v>       0.00173611 </v>
   <v>       0.00173611 </v>
   <v>       0.00173611 </v>
   <v>       0.00173611 </v>
   <v>       0.00173611 </v>
   <v>       0.00173611 </v>
   <v>       0.00173611 </v>
   <v>       0.00173611 </v>
   <v>       0.00173611 </v>
   <v>       0.00173611 </v>
   <v>       0.00173611 </v>
   <v>       0.00173611 </v>
   <v>       0.00173611 </v>
   <v>       0.00173611 </v>
   <v>       0.00173611 </v>
   <v>       0.00173611 </v>
   <v>       0.00173611 </v>
   <v>       0.00173611 </v>
   <v>       0.00173611 </v>
   <v>       0.00173611 </v>
   <v>       0.00173611 </v>
   <v>       0.00173611 </v>
   <v>       0.00173611 </v>
   <v>       0.00173611 </v>
   <v>       0.00173611 </v>
   <v>       0.00173611 </v>
   <v>       0.00173611 </v>
   <v>       0.00173611 </v>
   <v>       0.00173611 </v>
   <v>       0.00173611 </v>
   <v>       0.00173611 </v>
   <v>       0.00173611 </v>
   <v>       0.00173611 </v>
   <v>       0.00173611 </v>
   <v>       0.00173611 </v>
   <v>       0.00173611 </v>
   <v>       0.00173611 </v>
   <v>       0.00173611 </v>
   <v>       0.00173611 </v>
   <v>       0.00173611 </v>
   <v>       0.00173611 </v>
   <v>       0.00173611 </v>
   <v>       0.00173611 </v>
   <v>       0.00173611 </v>
   <v>       0.00173611 </v>
   <v>       0.00173611 </v>
   <v>       0.00173611 </v>
   <v>       0.00173611 </v>
   <v>       0.00173611 </v>
   <v>       0.00173611 </v>
   <v>       0.00173611 </v>
   <v>       0.00173611 </v>
   <v>       0.00173611 </v>
   <v>       0.00173611 </v>
   <v>       0.00173611 </v>
   <v>       0.00173611 </v>
   <v>       0.00173611 </v>
   <v>       0.00173611 </v>
   <v>       0.00173611 </v>
   <v>       0.00173611 </v>
   <v>       0.00173611 </v>
   <v>       0.00173611 </v>
   <v>       0.00173611 </v>
   <v>       0.00173611 </v>
   <v>       0.00173611 </v>
   <v>       0.00173611 </v>
   <v>       0.00173611 </v>
   <v>       0.00173611 </v>
   <v>       0.00173611 </v>
   <v>       0.00173611 </v>
   <v>       0.00173611 </v>
   <v>       0.00173611 </v>
   <v>       0.00173611 </v>
   <v>       0.00173611 </v>
   <v>       0.00173611 </v>
   <v>       0.00173611 </v>
   <v>       0.00173611 </v>
   <v>       0.00173611 </v>
   <v>       0.00173611 </v>
   <v>       0.00173611 </v>
   <v>       0.00173611 </v>
   <v>       0.00173611 </v>
   <v>       0.00173611 </v>
   <v>       0.00173611 </v>
   <v>       0.00173611 </v>
   <v>       0.00173611 </v>
   <v>       0.00173611 </v>
   <v>       0.00173611 </v>
   <v>       0.00173611 </v>
   <v>       0.00173611 </v>
   <v>       0.00173611 </v>
   <v>       0.00173611 </v>
   <v>       0.00173611 </v>
   <v>       0.00173611 </v>
   <v>       0.00173611 </v>
   <v>       0.00173611 </v>
   <v>       0.00173611 </v>
   <v>       0.00173611 </v>
   <v>       0.00173611 </v>
   <v>       0.00173611 </v>
   <v>       0.00173611 </v>
   <v>       0.00173611 </v>
   <v>       0.00173611 </v>
   <v>       0.00173611 </v>
   <v>       0.00173611 </v>
   <v>       0.00173611 </v>
   <v>       0.00173611 </v>
   <v>       0.00173611 </v>
   <v>       0.00173611 </v>
   <v>       0.00173611 </v>
   <v>       0.00173611 </v>
   <v>       0.00173611 </v>
   <v>       0.00173611 </v>
   <v>       0.00173611 </v>
   <v>       0.00173611 </v>
   <v>       0.00173611 </v>
   <v>       0.00173611 </v>
   <v>       0.00173611 </v>
   <v>       0.00173611 </v>
   <v>       0.00173611 </v>
   <v>       0.00173611 </v>
   <v>       0.00173611 </v>
   <v>       0.00173611 </v>
   <v>       0.00173611 </v>
   <v>       0.00173611 </v>
   <v>       0.00173611 </v>
   <v>       0.00173611 </v>
   <v>       0.00173611 </v>
   <v>       0.00173611 </v>
   <v>       0.00173611 </v>
   <v>       0.00173611 </v>
   <v>       0.00173611 </v>
   <v>       0.00173611 </v>
   <v>       0.00173611 </v>
   <v>       0.00173611 </v>
   <v>       0.00173611 </v>
   <v>       0.00173611 </v>
   <v>       0.00173611 </v>
   <v>       0.00173611 </v>
   <v>       0.00173611 </v>
   <v>       0.00173611 </v>
   <v>       0.00173611 </v>
   <v>       0.00173611 </v>
   <v>       0.00173611 </v>
   <v>       0.00173611 </v>
   <v>       0.00173611 </v>
   <v>       0.00173611 </v>
   <v>       0.00173611 </v>
   <v>       0.00173611 </v>
   <v>       0.00173611 </v>
   <v>       0.00173611 </v>
   <v>       0.00173611 </v>
   <v>       0.00173611 </v>
   <v>       0.00173611 </v>
   <v>       0.00173611 </v>
   <v>       0.00173611 </v>
   <v>       0.00173611 </v>
   <v>       0.00173611 </v>
   <v>       0.00173611 </v>
   <v>       0.00173611 </v>
   <v>       0.00173611 </v>
   <v>       0.00173611 </v>
   <v>       0.00173611 </v>
   <v>       0.00173611 </v>
   <v>       0.00173611 </v>
   <v>       0.00173611 </v>
   <v>       0.00173611 </v>
   <v>       0.00173611 </v>
   <v>       0.00173611 </v>
   <v>       0.00173611 </v>
   <v>       0.00173611 </v>
   <v>       0.00173611 </v>
   <v>       0.00173611 </v>
   <v>       0.00173611 </v>
   <v>       0.00173611 </v>
   <v>       0.00173611 </v>
   <v>       0.00173611 </v>
   <v>       0.00173611 </v>
   <v>       0.00173611 </v>
   <v>       0.00173611 </v>
   <v>       0.00173611 </v>
   <v>       0.00173611 </v>
   <v>       0.00173611 </v>
   <v>       0.00173611 </v>
   <v>       0.00173611 </v>
   <v>       0.00173611 </v>
   <v>       0.00173611 </v>
   <v>       0.00173611 </v>
   <v>       0.00173611 </v>
   <v>       0.00173611 </v>
   <v>       0.00173611 </v>
   <v>       0.00173611 </v>
   <v>       0.00173611 </v>
   <v>       0.00173611 </v>
   <v>       0.00173611 </v>
   <v>       0.00173611 </v>
   <v>       0.00173611 </v>
   <v>       0.00173611 </v>
   <v>       0.00173611 </v>
   <v>       0.00173611 </v>
   <v>       0.00173611 </v>
   <v>       0.00173611 </v>
   <v>       0.00173611 </v>
   <v>       0.00173611 </v>
   <v>       0.00173611 </v>
   <v>       0.00173611 </v>
   <v>       0.00173611 </v>
   <v>       0.00173611 </v>
   <v>       0.00173611 </v>
   <v>       0.00173611 </v>
   <v>       0.00173611 </v>
   <v>       0.00173611 </v>
   <v>       0.00173611 </v>
   <v>       0.00173611 </v>
   <v>       0.00173611 </v>
   <v>       0.00173611 </v>
   <v>       0.00173611 </v>
   <v>       0.00173611 </v>
   <v>       0.00173611 </v>
   <v>       0.00173611 </v>
   <v>       0.00173611 </v>
   <v>       0.00173611 </v>
   <v>       0.00173611 </v>
   <v>       0.00173611 </v>
   <v>       0.00173611 </v>
   <v>       0.00173611 </v>
   <v>       0.00173611 </v>
   <v>       0.00173611 </v>
   <v>       0.00173611 </v>
   <v>       0.00173611 </v>
   <v>       0.00173611 </v>
   <v>       0.00173611 </v>
   <v>       0.00173611 </v>
   <v>       0.00173611 </v>
   <v>       0.00173611 </v>
   <v>       0.00173611 </v>
   <v>       0.00173611 </v>
   <v>       0.00173611 </v>
   <v>       0.00173611 </v>
   <v>       0.00173611 </v>
   <v>       0.00173611 </v>
   <v>       0.00173611 </v>
   <v>       0.00173611 </v>
   <v>       0.00173611 </v>
   <v>       0.00173611 </v>
   <v>       0.00173611 </v>
   <v>       0.00173611 </v>
   <v>       0.00173611 </v>
   <v>       0.00173611 </v>
   <v>       0.00173611 </v>
   <v>       0.00173611 </v>
   <v>       0.00173611 </v>
   <v>       0.00173611 </v>
   <v>       0.00173611 </v>
   <v>       0.00173611 </v>
   <v>       0.00173611 </v>
   <v>       0.00173611 </v>
   <v>       0.00173611 </v>
   <v>       0.00173611 </v>
   <v>       0.00173611 </v>
   <v>       0.00173611 </v>
   <v>       0.00173611 </v>
   <v>       0.00173611 </v>
   <v>       0.00173611 </v>
   <v>       0.00173611 </v>
   <v>       0.00173611 </v>
   <v>       0.00173611 </v>
   <v>       0.00173611 </v>
   <v>       0.00173611 </v>
   <v>       0.00173611 </v>
   <v>       0.00173611 </v>
   <v>       0.00173611 </v>
   <v>       0.00173611 </v>
   <v>       0.00173611 </v>
   <v>       0.00173611 </v>
   <v>       0.00173611 </v>
   <v>       0.00173611 </v>
   <v>       0.00173611 </v>
   <v>       0.00173611 </v>
   <v>       0.00173611 </v>
   <v>       0.00173611 </v>
   <v>       0.00173611 </v>
   <v>       0.00173611 </v>
   <v>       0.00173611 </v>
   <v>       0.00173611 </v>
   <v>       0.00173611 </v>
   <v>       0.00173611 </v>
   <v>       0.00173611 </v>
   <v>       0.00173611 </v>
   <v>       0.00173611 </v>
   <v>       0.00173611 </v>
   <v>       0.00173611 </v>
   <v>       0.00173611 </v>
   <v>       0.00173611 </v>
   <v>       0.00173611 </v>
   <v>       0.00173611 </v>
   <v>       0.00173611 </v>
   <v>       0.00173611 </v>
   <v>       0.00173611 </v>
   <v>       0.00173611 </v>
   <v>       0.00173611 </v>
   <v>       0.00173611 </v>
   <v>       0.00173611 </v>
   <v>       0.00173611 </v>
   <v>       0.00173611 </v>
   <v>       0.00173611 </v>
   <v>       0.00173611 </v>
   <v>       0.00173611 </v>
   <v>       0.00173611 </v>
   <v>       0.00173611 </v>
   <v>       0.00173611 </v>
   <v>       0.00173611 </v>
   <v>       0.00173611 </v>
   <v>       0.00173611 </v>
   <v>       0.00173611 </v>
   <v>       0.00173611 </v>
   <v>       0.00173611 </v>
   <v>       0.00173611 </v>
   <v>       0.00173611 </v>
   <v>       0.00173611 </v>
   <v>       0.00173611 </v>
   <v>       0.00173611 </v>
   <v>       0.00173611 </v>
   <v>       0.00173611 </v>
   <v>       0.00173611 </v>
   <v>       0.00173611 </v>
   <v>       0.00173611 </v>
   <v>       0.00173611 </v>
   <v>       0.00173611 </v>
   <v>       0.00173611 </v>
   <v>       0.00173611 </v>
   <v>       0.00173611 </v>
   <v>       0.00173611 </v>
   <v>       0.00173611 </v>
   <v>       0.00173611 </v>
   <v>       0.00173611 </v>
   <v>       0.00173611 </v>
   <v>       0.00173611 </v>
   <v>       0.00173611 </v>
   <v>       0.00173611 </v>
   <v>       0.00173611 </v>
   <v>       0.00173611 </v>
   <v>       0.00173611 </v>
   <v>       0.00173611 </v>
   <v>       0.00173611 </v>
   <v>       0.00173611 </v>
   <v>       0.00173611 </v>
   <v>       0.00173611 </v>
   <v>       0.00173611 </v>
   <v>       0.00173611 </v>
   <v>       0.00173611 </v>
   <v>       0.00173611 </v>
   <v>       0.00173611 </v>
   <v>       0.00173611 </v>
   <v>       0.00173611 </v>
   <v>       0.00173611 </v>
   <v>       0.00173611 </v>
   <v>       0.00173611 </v>
   <v>       0.00173611 </v>
   <v>       0.00173611 </v>
   <v>       0.00173611 </v>
   <v>       0.00173611 </v>
   <v>       0.00173611 </v>
   <v>       0.00173611 </v>
   <v>       0.00173611 </v>
   <v>       0.00173611 </v>
   <v>       0.00173611 </v>
   <v>       0.00173611 </v>
   <v>       0.00173611 </v>
   <v>       0.00173611 </v>
   <v>       0.00173611 </v>
   <v>       0.00173611 </v>
   <v>       0.00173611 </v>
   <v>       0.00173611 </v>
   <v>       0.00173611 </v>
   <v>       0.00173611 </v>
   <v>       0.00173611 </v>
   <v>       0.00173611 </v>
   <v>       0.00173611 </v>
   <v>       0.00173611 </v>
   <v>       0.00173611 </v>
   <v>       0.00173611 </v>
   <v>       0.00173611 </v>
   <v>       0.00173611 </v>
   <v>       0.00173611 </v>
   <v>       0.00173611 </v>
   <v>       0.00173611 </v>
   <v>       0.00173611 </v>
   <v>       0.00173611 </v>
   <v>       0.00173611 </v>
   <v>       0.00173611 </v>
   <v>       0.00173611 </v>
   <v>       0.00173611 </v>
   <v>       0.00173611 </v>
   <v>       0.00173611 </v>
   <v>       0.00173611 </v>
   <v>       0.00173611 </v>
   <v>       0.00173611 </v>
   <v>       0.00173611 </v>
   <v>       0.00173611 </v>
   <v>       0.00173611 </v>
   <v>       0.00173611 </v>
   <v>       0.00173611 </v>
   <v>       0.00173611 </v>
   <v>       0.00173611 </v>
   <v>       0.00173611 </v>
   <v>       0.00173611 </v>
   <v>       0.00173611 </v>
   <v>       0.00173611 </v>
   <v>       0.00173611 </v>
   <v>       0.00173611 </v>
   <v>       0.00173611 </v>
   <v>       0.00173611 </v>
   <v>       0.00173611 </v>
   <v>       0.00173611 </v>
   <v>       0.00173611 </v>
   <v>       0.00173611 </v>
   <v>       0.00173611 </v>
   <v>       0.00173611 </v>
   <v>       0.00173611 </v>
   <v>       0.00173611 </v>
   <v>       0.00173611 </v>
   <v>       0.00173611 </v>
   <v>       0.00173611 </v>
   <v>       0.00173611 </v>
   <v>       0.00173611 </v>
   <v>       0.00173611 </v>
   <v>       0.00173611 </v>
   <v>       0.00173611 </v>
   <v>       0.00173611 </v>
   <v>       0.00173611 </v>
   <v>       0.00173611 </v>
   <v>       0.00173611 </v>
   <v>       0.00173611 </v>
   <v>       0.00173611 </v>
   <v>       0.00173611 </v>
   <v>       0.00173611 </v>
   <v>       0.00173611 </v>
   <v>       0.00173611 </v>
   <v>       0.00173611 </v>
   <v>       0.00173611 </v>
   <v>       0.00173611 </v>
   <v>       0.00173611 </v>
   <v>       0.00173611 </v>
   <v>       0.00173611 </v>
   <v>       0.00173611 </v>
   <v>       0.00173611 </v>
   <v>       0.00173611 </v>
   <v>       0.00173611 </v>
   <v>       0.00173611 </v>
   <v>       0.00173611 </v>
   <v>       0.00173611 </v>
   <v>       0.00173611 </v>
   <v>       0.00173611 </v>
   <v>       0.00173611 </v>
   <v>       0.00173611 </v>
   <v>       0.00173611 </v>
   <v>       0.00173611 </v>
   <v>       0.00173611 </v>
   <v>       0.00173611 </v>
   <v>       0.00173611 </v>
   <v>       0.00173611 </v>
   <v>       0.00173611 </v>
   <v>       0.00173611 </v>
   <v>       0.00173611 </v>
   <v>       0.00173611 </v>
   <v>       0.00173611 </v>
   <v>       0.00173611 </v>
   <v>       0.00173611 </v>
   <v>       0.00173611 </v>
   <v>       0.00173611 </v>
   <v>       0.00173611 </v>
   <v>       0.00173611 </v>
   <v>       0.00173611 </v>
   <v>       0.00173611 </v>
   <v>       0.00173611 </v>
   <v>       0.00173611 </v>
   <v>       0.00173611 </v>
   <v>       0.00173611 </v>
   <v>       0.00173611 </v>
   <v>       0.00173611 </v>
   <v>       0.00173611 </v>
   <v>       0.00173611 </v>
   <v>       0.00173611 </v>
   <v>       0.00173611 </v>
   <v>       0.00173611 </v>
   <v>       0.00173611 </v>
   <v>       0.00173611 </v>
   <v>       0.00173611 </v>
   <v>       0.00173611 </v>
   <v>       0.00173611 </v>
   <v>       0.00173611 </v>
   <v>       0.00173611 </v>
   <v>       0.00173611 </v>
   <v>       0.00173611 </v>
   <v>       0.00173611 </v>
   <v>       0.00173611 </v>
   <v>       0.00173611 </v>
   <v>       0.00173611 </v>
   <v>       0.00173611 </v>
   <v>       0.00173611 </v>
   <v>       0.00173611 </v>
   <v>       0.00173611 </v>
   <v>       0.00173611 </v>
   <v>       0.00173611 </v>
   <v>       0.00173611 </v>
   <v>       0.00173611 </v>
   <v>       0.00173611 </v>
   <v>       0.00173611 </v>
   <v>       0.00173611 </v>
   <v>       0.00173611 </v>
   <v>       0.00173611 </v>
   <v>       0.00173611 </v>
   <v>       0.00173611 </v>
   <v>       0.00173611 </v>
   <v>       0.00173611 </v>
   <v>       0.00173611 </v>
   <v>       0.00173611 </v>
   <v>       0.00173611 </v>
   <v>       0.00173611 </v>
   <v>       0.00173611 </v>
   <v>       0.00173611 </v>
   <v>       0.00173611 </v>
   <v>       0.00173611 </v>
   <v>       0.00173611 </v>
   <v>       0.00173611 </v>
   <v>       0.00173611 </v>
   <v>       0.00173611 </v>
   <v>       0.00173611 </v>
   <v>       0.00173611 </v>
   <v>       0.00173611 </v>
   <v>       0.00173611 </v>
   <v>       0.00173611 </v>
   <v>       0.00173611 </v>
   <v>       0.00173611 </v>
   <v>       0.00173611 </v>
   <v>       0.00173611 </v>
   <v>       0.00173611 </v>
   <v>       0.00173611 </v>
   <v>       0.00173611 </v>
   <v>       0.00173611 </v>
   <v>       0.00173611 </v>
   <v>       0.00173611 </v>
   <v>       0.00173611 </v>
   <v>       0.00173611 </v>
   <v>       0.00173611 </v>
   <v>       0.00173611 </v>
   <v>       0.00173611 </v>
   <v>       0.00173611 </v>
   <v>       0.00173611 </v>
   <v>       0.00173611 </v>
   <v>       0.00173611 </v>
   <v>       0.00173611 </v>
   <v>       0.00173611 </v>
   <v>       0.00173611 </v>
   <v>       0.00173611 </v>
   <v>       0.00173611 </v>
   <v>       0.00173611 </v>
   <v>       0.00173611 </v>
   <v>       0.00173611 </v>
   <v>       0.00173611 </v>
   <v>       0.00173611 </v>
   <v>       0.00173611 </v>
   <v>       0.00173611 </v>
   <v>       0.00173611 </v>
   <v>       0.00173611 </v>
   <v>       0.00173611 </v>
   <v>       0.00173611 </v>
   <v>       0.00173611 </v>
   <v>       0.00173611 </v>
   <v>       0.00173611 </v>
  </varray>
 </kpoints>
 <parameters>
  <separator name="general" >
   <i type="string" name="SYSTEM">MoS2 SOC SCF (high-res, 24x24x1)</i>
   <i type="logical" name="LCOMPAT"> F  </i>
  </separator>
  <separator name="electronic" >
   <i type="string" name="PREC">accura</i>
   <i name="ENMAX">    600.00000000</i>
   <i name="ENAUG">    392.42700000</i>
   <i name="EDIFF">      0.00000010</i>
   <i type="int" name="IALGO">    58</i>
   <i type="int" name="IWAVPR">    10</i>
   <i type="int" name="NBANDS">    40</i>
   <i name="NELECT">     24.00000000</i>
   <i type="int" name="TURBO">     0</i>
   <i type="int" name="IRESTART">     0</i>
   <i type="int" name="NREBOOT">     0</i>
   <i type="int" name="NMIN">     0</i>
   <i name="EREF">      0.00000000</i>
   <separator name="electronic smearing" >
    <i type="int" name="ISMEAR">     0</i>
    <i name="SIGMA">      0.03000000</i>
    <i name="KSPACING">      0.50000000</i>
    <i type="logical" name="KGAMMA"> T  </i>
   </separator>
   <separator name="electronic projectors" >
    <i type="logical" name="LREAL"> F  </i>
    <v name="ROPT">      0.00000000      0.00000000</v>
    <i type="int" name="LMAXPAW">  -100</i>
    <i type="int" name="LMAXMIX">     4</i>
    <i type="logical" name="NLSPLINE"> F  </i>
   </separator>
   <separator name="electronic startup" >
    <i type="int" name="ISTART">     1</i>
    <i type="int" name="ICHARG">    11</i>
    <i type="int" name="INIWAV">     1</i>
   </separator>
   <separator name="electronic spin" >
    <i type="int" name="ISPIN">     1</i>
    <i type="logical" name="LNONCOLLINEAR"> T  </i>
    <v name="MAGMOM">      1.00000000      1.00000000      1.00000000      1.00000000      1.00000000      1.00000000      1.00000000      1.00000000      1.00000000</v>
    <i name="NUPDOWN">     -1.00000000</i>
    <i type="logical" name="LSORBIT"> T  </i>
    <v name="SAXIS">      0.00000000      0.00000000      1.00000000</v>
    <i type="logical" name="LSPIRAL"> F  </i>
    <v name="QSPIRAL">      0.00000000      0.00000000      0.00000000</v>
    <i type="logical" name="LZEROZ"> F  </i>
   </separator>
   <separator name="electronic exchange-correlation" >
    <i type="logical" name="LASPH"> T  </i>
    <i type="logical" name="LMETAGGA"> F  </i>
   </separator>
   <separator name="electronic convergence" >
    <i type="int" name="NELM">   200</i>
    <i type="int" name="NELMDL">     0</i>
    <i type="int" name="NELMIN">     2</i>
    <i name="ENINI">    600.00000000</i>
    <separator name="electronic convergence detail" >
     <i type="logical" name="LDIAG"> T  </i>
     <i type="logical" name="LSUBROT"> F  </i>
     <i name="WEIMIN">      0.00000000</i>
     <i name="EBREAK">      0.00000000</i>
     <i name="DEPER">      0.30000000</i>
     <i type="int" name="NRMM">     4</i>
     <i name="TIME">      0.40000000</i>
    </separator>
   </separator>
   <separator name="electronic mixer" >
    <i name="AMIX">      0.20000000</i>
    <i name="BMIX">      0.00010000</i>
    <i name="AMIN">      0.10000000</i>
    <i name="AMIX_MAG">      0.20000000</i>
    <i name="BMIX_MAG">      0.00010000</i>
    <separator name="electronic mixer details" >
     <i type="int" name="IMIX">     4</i>
     <i type="logical" name="MIXFIRST"> F  </i>
     <i type="int" name="MAXMIX">   -45</i>
     <i name="WC">    100.00000000</i>
     <i type="int" name="INIMIX">     1</i>
     <i type="int" name="MIXPRE">     1</i>
     <i type="int" name="MREMOVE">     5</i>
    </separator>
   </separator>
   <separator name="electronic dipolcorrection" >
    <i type="logical" name="LDIPOL"> T  </i>
    <i type="logical" name="LMONO"> F  </i>
    <i type="int" name="IDIPOL">     3</i>
    <i name="EPSILON">      1.00000000</i>
    <v name="DIPOL">      0.50000000      0.50000000      0.50000000</v>
    <i name="EFIELD">      0.00000000</i>
   </separator>
  </separator>
  <separator name="grids" >
   <i type="int" name="NGX">    28</i>
   <i type="int" name="NGY">    28</i>
   <i type="int" name="NGZ">   280</i>
   <i type="int" name="NGXF">    56</i>
   <i type="int" name="NGYF">    56</i>
   <i type="int" name="NGZF">   560</i>
   <i type="logical" name="ADDGRID"> F  </i>
  </separator>
  <separator name="ionic" >
   <i type="int" name="NSW">     0</i>
   <i type="int" name="IBRION">    -1</i>
   <i type="int" name="ISIF">     2</i>
   <i name="PSTRESS">      0.00000000</i>
   <i name="EDIFFG">      0.00000100</i>
   <i type="int" name="NFREE">     0</i>
   <i name="POTIM">      0.50000000</i>
   <i name="SMASS">     -3.00000000</i>
   <i name="SCALEE">      1.00000000</i>
  </separator>
  <separator name="ionic md" >
   <i name="TEBEG">      0.00010000</i>
   <i name="TEEND">      0.00010000</i>
   <i type="int" name="NBLOCK">     1</i>
   <i type="int" name="KBLOCK">     1</i>
   <i type="int" name="NPACO">   256</i>
   <i name="APACO">     16.00000000</i>
  </separator>
  <separator name="symmetry" >
   <i type="int" name="ISYM">     0</i>
   <i name="SYMPREC">      0.00001000</i>
  </separator>
  <separator name="dos" >
   <i type="logical" name="LORBIT"> F  </i>
   <v name="RWIGS">     -1.00000000     -1.00000000</v>
   <i type="int" name="NEDOS">   301</i>
   <i name="EMIN">     10.00000000</i>
   <i name="EMAX">    -10.00000000</i>
   <i name="EFERMI">      0.00000000</i>
  </separator>
  <separator name="writing" >
   <i type="int" name="NWRITE">     3</i>
   <i type="logical" name="LWAVE"> T  </i>
   <i type="logical" name="LCHARG"> T  </i>
   <i type="logical" name="LPARD"> F  </i>
   <i type="logical" name="LVTOT"> F  </i>
   <i type="logical" name="LVHAR"> F  </i>
   <i type="logical" name="LELF"> F  </i>
   <i type="logical" name="LOPTICS"> F  </i>
   <v name="STM">      0.00000000      0.00000000      0.00000000      0.00000000      0.00000000      0.00000000      0.00000000</v>
  </separator>
  <separator name="performance" >
   <i type="int" name="NPAR">     8</i>
   <i type="int" name="NSIM">     4</i>
   <i type="int" name="NBLK">    -1</i>
   <i type="logical" name="LPLANE"> T  </i>
   <i type="logical" name="LSCALAPACK"> T  </i>
   <i type="logical" name="LSCAAWARE"> F  </i>
   <i type="logical" name="LSCALU"> F  </i>
   <i type="logical" name="LASYNC"> F  </i>
   <i type="logical" name="LORBITALREAL"> F  </i>
  </separator>
  <separator name="miscellaneous" >
   <i type="int" name="IDIOT">     3</i>
   <i type="logical" name="LMUSIC"> F  </i>
   <v name="POMASS">     95.94000000     32.06600000</v>
   <v name="DARWINR">      0.00000000      0.00000000</v>
   <v name="DARWINV">      1.00000000      1.00000000</v>
   <i type="logical" name="LCORR"> T  </i>
  </separator>
  <i type="logical" name="GGA_COMPAT"> F  </i>
  <i type="logical" name="LBERRY"> F  </i>
  <i type="int" name="ICORELEVEL">     0</i>
  <i type="logical" name="LDAU"> F  </i>
  <i type="int" name="I_CONSTRAINED_M">     0</i>
  <separator name="electronic exchange-correlation" >
   <i type="string" name="GGA">--</i>
   <i type="int" name="VOSKOWN">     0</i>
   <i type="logical" name="LHFCALC"> F  </i>
   <i type="string" name="PRECFOCK"></i>
   <i type="logical" name="LSYMGRAD"> F  </i>
   <i type="logical" name="LHFONE"> F  </i>
   <i type="logical" name="LRHFCALC"> F  </i>
   <i type="logical" name="LTHOMAS"> F  </i>
   <i type="logical" name="LMODELHF"> F  </i>
   <i name="ENCUT4O">     -1.00000000</i>
   <i type="int" name="EXXOEP">     0</i>
   <i type="int" name="FOURORBIT">     0</i>
   <i name="AEXX">      0.00000000</i>
   <i name="HFALPHA">      0.00000000</i>
   <i name="MCALPHA">      0.00000000</i>
   <i name="ALDAX">      1.00000000</i>
   <i name="AGGAX">      1.00000000</i>
   <i name="ALDAC">      1.00000000</i>
   <i name="AGGAC">      1.00000000</i>
   <i type="int" name="NKREDX">     1</i>
   <i type="int" name="NKREDY">     1</i>
   <i type="int" name="NKREDZ">     1</i>
   <i type="logical" name="SHIFTRED"> F  </i>
   <i type="logical" name="ODDONLY"> F  </i>
   <i type="logical" name="EVENONLY"> F  </i>
   <i type="int" name="LMAXFOCK">     0</i>
   <i type="int" name="NMAXFOCKAE">     0</i>
   <i type="logical" name="LFOCKAEDFT"> F  </i>
   <i name="HFSCREEN">      0.00000000</i>
   <i name="HFSCREENC">      0.00000000</i>
   <i type="int" name="NBANDSGWLOW">     0</i>
  </separator>
  <separator name="vdW DFT" >
   <i type="logical" name="LUSE_VDW"> F  </i>
   <i name="Zab_VDW">     -0.84910000</i>
   <i name="PARAM1">      0.12340000</i>
   <i name="PARAM2">      1.00000000</i>
   <i name="PARAM3">      0.00000000</i>
  </separator>
  <separator name="model GW" >
   <i type="int" name="MODEL_GW">     0</i>
   <i name="MODEL_EPS0">     63.11239540</i>
   <i name="MODEL_ALPHA">      1.00000000</i>
  </separator>
  <separator name="linear response parameters" >
   <i type="logical" name="LEPSILON"> F  </i>
   <i type="logical" name="LRPA"> F  </i>
   <i type="logical" name="LNABLA"> F  </i>
   <i type="logical" name="LVEL"> F  </i>
   <i type="int" name="KINTER">     0</i>
   <i name="CSHIFT">      0.10000000</i>
   <i name="OMEGAMAX">     -1.00000000</i>
   <i name="DEG_THRESHOLD">      0.00200000</i>
  </separator>
  <separator name="orbital magnetization" >
   <i type="logical" name="NUCIND"> F  </i>
   <v name="MAGPOS">      0.00000000      0.00000000      0.00000000</v>
   <i type="logical" name="LNICSALL"> T  </i>
   <i type="logical" name="ORBITALMAG"> F  </i>
   <i type="logical" name="LMAGBLOCH"> F  </i>
   <i type="logical" name="LCHIMAG"> F  </i>
   <i type="logical" name="LGAUGE"> T  </i>
   <i type="int" name="MAGATOM">     0</i>
   <v name="MAGDIPOL">      0.00000000      0.00000000      0.00000000</v>
   <v name="AVECCONST">      0.00000000      0.00000000      0.00000000</v>
  </separator>
  <separator name="response functions" >
   <i type="logical" name="LADDER"> F  </i>
   <i type="logical" name="LFXC"> F  </i>
   <i type="logical" name="LHARTREE"> T  </i>
   <i type="int" name="IBSE">     0</i>
   <v type="int" name="KPOINT">    -1     0     0     0</v>
   <i type="logical" name="LTCTE"> F  </i>
   <i type="logical" name="LTETE"> F  </i>
   <i type="logical" name="LTRIPLET"> F  </i>
   <i type="logical" name="LFXCEPS"> F  </i>
   <i type="logical" name="LFXHEG"> F  </i>
   <i type="int" name="NATURALO">     0</i>
   <i type="logical" name="L2ORDER"> F  </i>
   <i type="logical" name="LUSEW"> F  </i>
   <i name="ENCUTGW">     -2.00000000</i>
   <i name="ENCUTGWSOFT">     -2.00000000</i>
   <i name="ENCUTLF">     -1.00000000</i>
   <i type="int" name="LMAXMP2">    -1</i>
   <i name="SCISSOR">      0.00000000</i>
   <i type="int" name="NOMEGA">     0</i>
   <i type="int" name="NOMEGAR">     0</i>
   <i type="int" name="NBANDSGW">    -1</i>
   <i type="int" name="NBANDSO">    -1</i>
   <i type="int" name="NBANDSV">    -1</i>
   <i type="int" name="NELM">   200</i>
   <i type="int" name="NELMHF">     1</i>
   <i type="int" name="DIM">     3</i>
   <i type="int" name="ANTIRES">     0</i>
   <i name="OMEGAMAX">    -30.00000000</i>
   <i name="OMEGAMIN">    -30.00000000</i>
   <i name="OMEGATL">   -200.00000000</i>
   <i type="int" name="OMEGAGRID">     0</i>
   <i name="CSHIFT">     -0.10000000</i>
   <i type="logical" name="SELFENERGY"> F  </i>
   <i type="logical" name="LSPECTRAL"> F  </i>
   <i type="logical" name="LSPECTRALGW"> F  </i>
   <i type="logical" name="LSINGLES"> F  </i>
   <i type="logical" name="LFERMIGW"> F  </i>
   <i type="logical" name="ODDONLYGW"> F  </i>
   <i type="logical" name="EVENONLYGW"> F  </i>
   <i type="int" name="NKREDLFX">     1</i>
   <i type="int" name="NKREDLFY">     1</i>
   <i type="int" name="NKREDLFZ">     1</i>
   <i type="int" name="MAXMEM">  1800</i>
   <i type="int" name="TELESCOPE">     0</i>
   <i type="int" name="TAUPAR">     1</i>
   <i type="int" name="OMEGAPAR">    -1</i>
   <i name="LAMBDA">      1.00000000</i>
  </separator>
  <separator name="External order field" >
   <i name="OFIELD_KAPPA">      0.00000000</i>
   <v name="OFIELD_K">      0.00000000      0.00000000      0.00000000</v>
   <i name="OFIELD_Q6_NEAR">      0.00000000</i>
   <i name="OFIELD_Q6_FAR">      0.00000000</i>
   <i name="OFIELD_A">      0.00000000</i>
  </separator>
  <separator name="solvation model" >
   <i type="logical" name="LSOL"> F  </i>
  </separator>
 </parameters>
 <atominfo>
  <atoms>       3 </atoms>
  <types>       2 </types>
  <array name="atoms" >
   <dimension dim="1">ion</dimension>
   <field type="string">element</field>
   <field type="int">atomtype</field>
   <set>
    <rc><c>Mo</c><c>   1</c></rc>
    <rc><c>S </c><c>   2</c></rc>
    <rc><c>S </c><c>   2</c></rc>
   </set>
  </array>
  <array name="atomtypes" >
   <dimension dim="1">type</dimension>
   <field type="int">atomspertype</field>
   <field type="string">element</field>
   <field>mass</field>
   <field>valence</field>
   <field type="string">pseudopotential</field>
   <set>
    <rc><c>   1</c><c>Mo</c><c>     95.94000000</c><c>     12.00000000</c><c> PAW_PBE Mo_pv 08Apr2002                </c></rc>
    <rc><c>   2</c><c>S </c><c>     32.06600000</c><c>      6.00000000</c><c>  PAW_PBE S 17Jan2003                   </c></rc>
   </set>
  </array>
 </atominfo>
 <structure name="initialpos" >
  <crystal>
   <varray name="basis" >
    <v>       1.61415312      -2.79579451       0.00000000 </v>
    <v>       1.61415312       2.79579451       0.00000000 </v>
    <v>       0.00000000       0.00000000      34.96267827 </v>
   </varray>
   <i name="volume">    315.56197699 </i>
   <varray name="rec_basis" >
    <v>       0.30975996      -0.17884004       0.00000000 </v>
    <v>       0.30975996       0.17884004       0.00000000 </v>
    <v>       0.00000000       0.00000000       0.02860193 </v>
   </varray>
  </crystal>
  <varray name="positions" >
   <v>       0.66666700       0.33333300       0.10664700 </v>
   <v>       0.33333300       0.66666700       0.06198962 </v>
   <v>       0.33333300       0.66666700       0.15130538 </v>
  </varray>
 </structure>
 <calculation>
  <scstep>
   <time name="total">  148.01  148.01</time>
   <dipole>
    <v name="dipole">      0.00000000       0.00000000       0.20328138 </v>
    <i name="Tr[quadrupol]">    -54.88878698 </i>
    <i name="Echarged">      0.00000000 </i>
    <i name="Edipol_quadrupol">      0.00000000 </i>
    <i name="Eion">      0.00000000 </i>
   </dipole>
   <energy>
    <i name="alphaZ">     55.29357184 </i>
    <i name="ewald">  11561.09611740 </i>
    <i name="hartreedc"> -13127.79086754 </i>
    <i name="XCdc">     61.71538217 </i>
    <i name="pawpsdc">   1158.66145102 </i>
    <i name="pawaedc">  -1137.42218763 </i>
    <i name="eentropy">     -0.00129993 </i>
    <i name="bandstr">   -312.20857643 </i>
    <i name="atom">   1837.94417650 </i>
    <i name="e_fr_energy">     97.28906733 </i>
    <i name="e_wo_entrp">     97.29036726 </i>
    <i name="e_0_energy">     97.28971729 </i>
   </energy>
  </scstep>
  <scstep>
   <time name="total">  174.45  175.00</time>
   <dipole>
    <v name="dipole">      0.00000000       0.00000000       0.20328138 </v>
    <i name="Tr[quadrupol]">    -54.88878698 </i>
    <i name="Echarged">      0.00000000 </i>
    <i name="Edipol_quadrupol">      0.00000000 </i>
    <i name="Eion">      0.00000000 </i>
   </dipole>
   <energy>
    <i name="e_fr_energy">     26.21176926 </i>
    <i name="e_wo_entrp">     26.21270898 </i>
    <i name="e_0_energy">     26.21223912 </i>
   </energy>
  </scstep>
  <scstep>
   <time name="total">  207.35  208.16</time>
   <dipole>
    <v name="dipole">      0.00000000       0.00000000       0.20328138 </v>
    <i name="Tr[quadrupol]">    -54.88878698 </i>
    <i name="Echarged">      0.00000000 </i>
    <i name="Edipol_quadrupol">      0.00000000 </i>
    <i name="Eion">      0.00000000 </i>
   </dipole>
   <energy>
    <i name="e_fr_energy">      1.93407302 </i>
    <i name="e_wo_entrp">      1.93518749 </i>
    <i name="e_0_energy">      1.93463025 </i>
   </energy>
  </scstep>
  <scstep>
   <time name="total">  155.65  155.68</time>
   <dipole>
    <v name="dipole">      0.00000000       0.00000000       0.20328138 </v>
    <i name="Tr[quadrupol]">    -54.88878698 </i>
    <i name="Echarged">      0.00000000 </i>
    <i name="Edipol_quadrupol">      0.00000000 </i>
    <i name="Eion">      0.00000000 </i>
   </dipole>
   <energy>
    <i name="e_fr_energy">     -7.33964237 </i>
    <i name="e_wo_entrp">     -7.33852363 </i>
    <i name="e_0_energy">     -7.33908300 </i>
   </energy>
  </scstep>
  <scstep>
   <time name="total">  146.88  146.88</time>
   <dipole>
    <v name="dipole">      0.00000000       0.00000000       0.20328138 </v>
    <i name="Tr[quadrupol]">    -54.88878698 </i>
    <i name="Echarged">      0.00000000 </i>
    <i name="Edipol_quadrupol">      0.00000000 </i>
    <i name="Eion">      0.00000000 </i>
   </dipole>
   <energy>
    <i name="e_fr_energy">    -14.86450236 </i>
    <i name="e_wo_entrp">    -14.86381547 </i>
    <i name="e_0_energy">    -14.86415891 </i>
   </energy>
  </scstep>
  <scstep>
   <time name="total">  147.52  147.52</time>
   <dipole>
    <v name="dipole">      0.00000000       0.00000000       0.20328138 </v>
    <i name="Tr[quadrupol]">    -54.88878698 </i>
    <i name="Echarged">      0.00000000 </i>
    <i name="Edipol_quadrupol">      0.00000000 </i>
    <i name="Eion">      0.00000000 </i>
   </dipole>
   <energy>
    <i name="e_fr_energy">    -18.77546551 </i>
    <i name="e_wo_entrp">    -18.77489534 </i>
    <i name="e_0_energy">    -18.77518043 </i>
   </energy>
  </scstep>
  <scstep>
   <time name="total">  148.29  148.29</time>
   <dipole>
    <v name="dipole">      0.00000000       0.00000000       0.20328138 </v>
    <i name="Tr[quadrupol]">    -54.88878698 </i>
    <i name="Echarged">      0.00000000 </i>
    <i name="Edipol_quadrupol">      0.00000000 </i>
    <i name="Eion">      0.00000000 </i>
   </dipole>
   <energy>
    <i name="e_fr_energy">    -20.41977740 </i>
    <i name="e_wo_entrp">    -20.41945442 </i>
    <i name="e_0_energy">    -20.41961591 </i>
   </energy>
  </scstep>
  <scstep>
   <time name="total">  186.08  187.56</time>
   <dipole>
    <v name="dipole">      0.00000000       0.00000000       0.20328138 </v>
    <i name="Tr[quadrupol]">    -54.88878698 </i>
    <i name="Echarged">      0.00000000 </i>
    <i name="Edipol_quadrupol">      0.00000000 </i>
    <i name="Eion">      0.00000000 </i>
   </dipole>
   <energy>
    <i name="e_fr_energy">    -21.13557554 </i>
    <i name="e_wo_entrp">    -21.13557554 </i>
    <i name="e_0_energy">    -21.13557554 </i>
   </energy>
  </scstep>
  <scstep>
   <time name="total">  204.18  204.50</time>
   <dipole>
    <v name="dipole">      0.00000000       0.00000000       0.20328138 </v>
    <i name="Tr[quadrupol]">    -54.88878698 </i>
    <i name="Echarged">      0.00000000 </i>
    <i name="Edipol_quadrupol">      0.00000000 </i>
    <i name="Eion">      0.00000000 </i>
   </dipole>
   <energy>
    <i name="e_fr_energy">    -21.50698882 </i>
    <i name="e_wo_entrp">    -21.50698882 </i>
    <i name="e_0_energy">    -21.50698882 </i>
   </energy>
  </scstep>
  <scstep>
   <time name="total">  146.75  146.75</time>
   <dipole>
    <v name="dipole">      0.00000000       0.00000000       0.20328138 </v>
    <i name="Tr[quadrupol]">    -54.88878698 </i>
    <i name="Echarged">      0.00000000 </i>
    <i name="Edipol_quadrupol">      0.00000000 </i>
    <i name="Eion">      0.00000000 </i>
   </dipole>
   <energy>
    <i name="e_fr_energy">    -21.61566760 </i>
    <i name="e_wo_entrp">    -21.61566760 </i>
    <i name="e_0_energy">    -21.61566760 </i>
   </energy>
  </scstep>
  <scstep>
   <time name="total">  147.23  147.23</time>
   <dipole>
    <v name="dipole">      0.00000000       0.00000000       0.20328138 </v>
    <i name="Tr[quadrupol]">    -54.88878698 </i>
    <i name="Echarged">      0.00000000 </i>
    <i name="Edipol_quadrupol">      0.00000000 </i>
    <i name="Eion">      0.00000000 </i>
   </dipole>
   <energy>
    <i name="e_fr_energy">    -21.68719691 </i>
    <i name="e_wo_entrp">    -21.68719691 </i>
    <i name="e_0_energy">    -21.68719691 </i>
   </energy>
  </scstep>
  <scstep>
   <time name="total">  146.82  146.82</time>
   <dipole>
    <v name="dipole">      0.00000000       0.00000000       0.20328138 </v>
    <i name="Tr[quadrupol]">    -54.88878698 </i>
    <i name="Echarged">      0.00000000 </i>
    <i name="Edipol_quadrupol">      0.00000000 </i>
    <i name="Eion">      0.00000000 </i>
   </dipole>
   <energy>
    <i name="e_fr_energy">    -21.71708205 </i>
    <i name="e_wo_entrp">    -21.71708205 </i>
    <i name="e_0_energy">    -21.71708205 </i>
   </energy>
  </scstep>
  <scstep>
   <time name="total">  147.22  147.22</time>
   <dipole>
    <v name="dipole">      0.00000000       0.00000000       0.20328138 </v>
    <i name="Tr[quadrupol]">    -54.88878698 </i>
    <i name="Echarged">      0.00000000 </i>
    <i name="Edipol_quadrupol">      0.00000000 </i>
    <i name="Eion">      0.00000000 </i>
   </dipole>
   <energy>
    <i name="e_fr_energy">    -21.73112923 </i>
    <i name="e_wo_entrp">    -21.73112923 </i>
    <i name="e_0_energy">    -21.73112923 </i>
   </energy>
  </scstep>
  <scstep>
   <time name="total">  146.98  146.99</time>
   <dipole>
    <v name="dipole">      0.00000000       0.00000000       0.20328138 </v>
    <i name="Tr[quadrupol]">    -54.88878698 </i>
    <i name="Echarged">      0.00000000 </i>
    <i name="Edipol_quadrupol">      0.00000000 </i>
    <i name="Eion">      0.00000000 </i>
   </dipole>
   <energy>
    <i name="e_fr_energy">    -21.73711152 </i>
    <i name="e_wo_entrp">    -21.73711152 </i>
    <i name="e_0_energy">    -21.73711152 </i>
   </energy>
  </scstep>
  <scstep>
   <time name="total">  147.28  147.28</time>
   <dipole>
    <v name="dipole">      0.00000000       0.00000000       0.20328138 </v>
    <i name="Tr[quadrupol]">    -54.88878698 </i>
    <i name="Echarged">      0.00000000 </i>
    <i name="Edipol_quadrupol">      0.00000000 </i>
    <i name="Eion">      0.00000000 </i>
   </dipole>
   <energy>
    <i name="e_fr_energy">    -21.73990652 </i>
    <i name="e_wo_entrp">    -21.73990652 </i>
    <i name="e_0_energy">    -21.73990652 </i>
   </energy>
  </scstep>
  <scstep>
   <time name="total">  146.49  146.49</time>
   <dipole>
    <v name="dipole">      0.00000000       0.00000000       0.20328138 </v>
    <i name="Tr[quadrupol]">    -54.88878698 </i>
    <i name="Echarged">      0.00000000 </i>
    <i name="Edipol_quadrupol">      0.00000000 </i>
    <i name="Eion">      0.00000000 </i>
   </dipole>
   <energy>
    <i name="e_fr_energy">    -21.74121007 </i>
    <i name="e_wo_entrp">    -21.74121007 </i>
    <i name="e_0_energy">    -21.74121007 </i>
   </energy>
  </scstep>
  <scstep>
   <time name="total">  147.22  147.23</time>
   <dipole>
    <v name="dipole">      0.00000000       0.00000000       0.20328138 </v>
    <i name="Tr[quadrupol]">    -54.88878698 </i>
    <i name="Echarged">      0.00000000 </i>
    <i name="Edipol_quadrupol">      0.00000000 </i>
    <i name="Eion">      0.00000000 </i>
   </dipole>
   <energy>
    <i name="e_fr_energy">    -21.74180591 </i>
    <i name="e_wo_entrp">    -21.74180591 </i>
    <i name="e_0_energy">    -21.74180591 </i>
   </energy>
  </scstep>
  <scstep>
   <time name="total">  147.11  147.11</time>
   <dipole>
    <v name="dipole">      0.00000000       0.00000000       0.20328138 </v>
    <i name="Tr[quadrupol]">    -54.88878698 </i>
    <i name="Echarged">      0.00000000 </i>
    <i name="Edipol_quadrupol">      0.00000000 </i>
    <i name="Eion">      0.00000000 </i>
   </dipole>
   <energy>
    <i name="e_fr_energy">    -21.74207024 </i>
    <i name="e_wo_entrp">    -21.74207024 </i>
    <i name="e_0_energy">    -21.74207024 </i>
   </energy>
  </scstep>
  <scstep>
   <time name="total">  146.88  146.88</time>
   <dipole>
    <v name="dipole">      0.00000000       0.00000000       0.20328138 </v>
    <i name="Tr[quadrupol]">    -54.88878698 </i>
    <i name="Echarged">      0.00000000 </i>
    <i name="Edipol_quadrupol">      0.00000000 </i>
    <i name="Eion">      0.00000000 </i>
   </dipole>
   <energy>
    <i name="e_fr_energy">    -21.74218285 </i>
    <i name="e_wo_entrp">    -21.74218285 </i>
    <i name="e_0_energy">    -21.74218285 </i>
   </energy>
  </scstep>
  <scstep>
   <time name="total">  147.33  147.33</time>
   <dipole>
[...]
       <r>    -5.4314     0.0000     0.0000 </r>
       <r>    -5.2469     0.0000     0.0000 </r>
       <r>    -5.0625     0.0000     0.0000 </r>
       <r>    -4.8780     0.0000     0.0000 </r>
       <r>    -4.6935     0.0000     0.0000 </r>
       <r>    -4.5091     0.0000     0.0000 </r>
       <r>    -4.3246     0.0000     0.0000 </r>
       <r>    -4.1402     0.0000     0.0000 </r>
       <r>    -3.9557     0.0000     0.0000 </r>
       <r>    -3.7712     0.0000     0.0000 </r>
       <r>    -3.5868     0.0000     0.0000 </r>
       <r>    -3.4023     0.0000     0.0000 </r>
       <r>    -3.2179     0.0000     0.0000 </r>
       <r>    -3.0334     0.0000     0.0000 </r>
       <r>    -2.8489     0.0000     0.0000 </r>
       <r>    -2.6645     0.0000     0.0000 </r>
       <r>    -2.4800     0.0000     0.0000 </r>
       <r>    -2.2956     0.0000     0.0000 </r>
       <r>    -2.1111     0.0000     0.0000 </r>
       <r>    -1.9266     0.0000     0.0000 </r>
       <r>    -1.7422     0.0000     0.0000 </r>
       <r>    -1.5577     0.0000     0.0000 </r>
       <r>    -1.3733     0.0000     0.0000 </r>
       <r>    -1.1888     0.0000     0.0000 </r>
       <r>    -1.0043     0.0000     0.0000 </r>
       <r>    -0.8199     0.0000     0.0000 </r>
       <r>    -0.6354     0.0000     0.0000 </r>
       <r>    -0.4510     0.0000     0.0000 </r>
       <r>    -0.2665     0.0000     0.0000 </r>
       <r>    -0.0820     0.0000     0.0000 </r>
       <r>     0.1024     0.0000     0.0000 </r>
       <r>     0.2869     0.0000     0.0000 </r>
       <r>     0.4713     0.0000     0.0000 </r>
       <r>     0.6558     0.0000     0.0000 </r>
       <r>     0.8403     0.0000     0.0000 </r>
       <r>     1.0247     0.0000     0.0000 </r>
       <r>     1.2092     0.0000     0.0000 </r>
       <r>     1.3936     0.0000     0.0000 </r>
       <r>     1.5781     0.0000     0.0000 </r>
       <r>     1.7626     0.0000     0.0000 </r>
       <r>     1.9470     0.0000     0.0000 </r>
       <r>     2.1315     0.0000     0.0000 </r>
       <r>     2.3159     0.0000     0.0000 </r>
       <r>     2.5004     0.0000     0.0000 </r>
       <r>     2.6849     0.0000     0.0000 </r>
       <r>     2.8693     0.0000     0.0000 </r>
       <r>     3.0538     0.0000     0.0000 </r>
       <r>     3.2382     0.0000     0.0000 </r>
       <r>     3.4227     0.0000     0.0000 </r>
       <r>     3.6072     0.0000     0.0000 </r>
       <r>     3.7916     0.0000     0.0000 </r>
       <r>     3.9761     0.0000     0.0000 </r>
       <r>     4.1605     0.0000     0.0000 </r>
       <r>     4.3450     0.0000     0.0000 </r>
       <r>     4.5295     0.0000     0.0000 </r>
       <r>     4.7139     0.0000     0.0000 </r>
       <r>     4.8984     0.0000     0.0000 </r>
       <r>     5.0828     0.0000     0.0000 </r>
       <r>     5.2673     0.0000     0.0000 </r>
       <r>     5.4518     0.0000     0.0000 </r>
       <r>     5.6362     0.0000     0.0000 </r>
       <r>     5.8207     0.0000     0.0000 </r>
       <r>     6.0051     0.0000     0.0000 </r>
       <r>     6.1896     0.0000     0.0000 </r>
       <r>     6.3741     0.0000     0.0000 </r>
       <r>     6.5585     0.0000     0.0000 </r>
       <r>     6.7430     0.0000     0.0000 </r>
       <r>     6.9274     0.0000     0.0000 </r>
       <r>     7.1119     0.0000     0.0000 </r>
       <r>     7.2964     0.0000     0.0000 </r>
       <r>     7.4808     0.0000     0.0000 </r>
       <r>     7.6653     0.0000     0.0000 </r>
       <r>     7.8497     0.0000     0.0000 </r>
       <r>     8.0342     0.0000     0.0000 </r>
       <r>     8.2187     0.0000     0.0000 </r>
       <r>     8.4031     0.0000     0.0000 </r>
       <r>     8.5876     0.0000     0.0000 </r>
       <r>     8.7720     0.0000     0.0000 </r>
       <r>     8.9565     0.0000     0.0000 </r>
       <r>     9.1410     0.0000     0.0000 </r>
       <r>     9.3254     0.0000     0.0000 </r>
       <r>     9.5099     0.0000     0.0000 </r>
       <r>     9.6943     0.0000     0.0000 </r>
       <r>     9.8788     0.0000     0.0000 </r>
       <r>    10.0633     0.0000     0.0000 </r>
       <r>    10.2477     0.0000     0.0000 </r>
       <r>    10.4322     0.0000     0.0000 </r>
       <r>    10.6166     0.0000     0.0000 </r>
      </set>
      <set comment="spin 4">
       <r>   -44.7213     0.0000     0.0000 </r>
       <r>   -44.5369     0.0000     0.0000 </r>
       <r>   -44.3524     0.0000     0.0000 </r>
       <r>   -44.1680     0.0000     0.0000 </r>
       <r>   -43.9835     0.0000     0.0000 </r>
       <r>   -43.7990     0.0000     0.0000 </r>
       <r>   -43.6146     0.0000     0.0000 </r>
       <r>   -43.4301     0.0000     0.0000 </r>
       <r>   -43.2457     0.0000     0.0000 </r>
       <r>   -43.0612     0.0000     0.0000 </r>
       <r>   -42.8767     0.0000     0.0000 </r>
       <r>   -42.6923     0.0000     0.0000 </r>
       <r>   -42.5078     0.0000     0.0000 </r>
       <r>   -42.3234     0.0000     0.0000 </r>
       <r>   -42.1389     0.0000     0.0000 </r>
       <r>   -41.9544     0.0000     0.0000 </r>
       <r>   -41.7700     0.0000     0.0000 </r>
       <r>   -41.5855     0.0000     0.0000 </r>
       <r>   -41.4011     0.0000     0.0000 </r>
       <r>   -41.2166     0.0000     0.0000 </r>
       <r>   -41.0321     0.0000     0.0000 </r>
       <r>   -40.8477     0.0000     0.0000 </r>
       <r>   -40.6632     0.0000     0.0000 </r>
       <r>   -40.4788     0.0000     0.0000 </r>
       <r>   -40.2943     0.0000     0.0000 </r>
       <r>   -40.1098     0.0000     0.0000 </r>
       <r>   -39.9254     0.0000     0.0000 </r>
       <r>   -39.7409     0.0000     0.0000 </r>
       <r>   -39.5565     0.0000     0.0000 </r>
       <r>   -39.3720     0.0000     0.0000 </r>
       <r>   -39.1875     0.0000     0.0000 </r>
       <r>   -39.0031     0.0000     0.0000 </r>
       <r>   -38.8186     0.0000     0.0000 </r>
       <r>   -38.6342     0.0000     0.0000 </r>
       <r>   -38.4497     0.0000     0.0000 </r>
       <r>   -38.2652     0.0000     0.0000 </r>
       <r>   -38.0808     0.0000     0.0000 </r>
       <r>   -37.8963     0.0000     0.0000 </r>
       <r>   -37.7119     0.0000     0.0000 </r>
       <r>   -37.5274     0.0000     0.0000 </r>
       <r>   -37.3429     0.0000     0.0000 </r>
       <r>   -37.1585     0.0000     0.0000 </r>
       <r>   -36.9740     0.0000     0.0000 </r>
       <r>   -36.7896     0.0000     0.0000 </r>
       <r>   -36.6051     0.0000     0.0000 </r>
       <r>   -36.4206     0.0000     0.0000 </r>
       <r>   -36.2362     0.0000     0.0000 </r>
       <r>   -36.0517     0.0000     0.0000 </r>
       <r>   -35.8673     0.0000     0.0000 </r>
       <r>   -35.6828     0.0000     0.0000 </r>
       <r>   -35.4983     0.0000     0.0000 </r>
       <r>   -35.3139     0.0000     0.0000 </r>
       <r>   -35.1294     0.0000     0.0000 </r>
       <r>   -34.9450     0.0000     0.0000 </r>
       <r>   -34.7605     0.0000     0.0000 </r>
       <r>   -34.5760     0.0000     0.0000 </r>
       <r>   -34.3916     0.0000     0.0000 </r>
       <r>   -34.2071     0.0000     0.0000 </r>
       <r>   -34.0227     0.0000     0.0000 </r>
       <r>   -33.8382     0.0000     0.0000 </r>
       <r>   -33.6537     0.0000     0.0000 </r>
       <r>   -33.4693     0.0000     0.0000 </r>
       <r>   -33.2848     0.0000     0.0000 </r>
       <r>   -33.1004     0.0000     0.0000 </r>
       <r>   -32.9159     0.0000     0.0000 </r>
       <r>   -32.7314     0.0000     0.0000 </r>
       <r>   -32.5470     0.0000     0.0000 </r>
       <r>   -32.3625     0.0000     0.0000 </r>
       <r>   -32.1781     0.0000     0.0000 </r>
       <r>   -31.9936     0.0000     0.0000 </r>
       <r>   -31.8091     0.0000     0.0000 </r>
       <r>   -31.6247     0.0000     0.0000 </r>
       <r>   -31.4402     0.0000     0.0000 </r>
       <r>   -31.2558     0.0000     0.0000 </r>
       <r>   -31.0713     0.0000     0.0000 </r>
       <r>   -30.8868     0.0000     0.0000 </r>
       <r>   -30.7024     0.0000     0.0000 </r>
       <r>   -30.5179     0.0000     0.0000 </r>
       <r>   -30.3335     0.0000     0.0000 </r>
       <r>   -30.1490     0.0000     0.0000 </r>
       <r>   -29.9645     0.0000     0.0000 </r>
       <r>   -29.7801     0.0000     0.0000 </r>
       <r>   -29.5956     0.0000     0.0000 </r>
       <r>   -29.4112     0.0000     0.0000 </r>
       <r>   -29.2267     0.0000     0.0000 </r>
       <r>   -29.0422     0.0000     0.0000 </r>
       <r>   -28.8578     0.0000     0.0000 </r>
       <r>   -28.6733     0.0000     0.0000 </r>
       <r>   -28.4889     0.0000     0.0000 </r>
       <r>   -28.3044     0.0000     0.0000 </r>
       <r>   -28.1199     0.0000     0.0000 </r>
       <r>   -27.9355     0.0000     0.0000 </r>
       <r>   -27.7510     0.0000     0.0000 </r>
       <r>   -27.5666     0.0000     0.0000 </r>
       <r>   -27.3821     0.0000     0.0000 </r>
       <r>   -27.1976     0.0000     0.0000 </r>
       <r>   -27.0132     0.0000     0.0000 </r>
       <r>   -26.8287     0.0000     0.0000 </r>
       <r>   -26.6443     0.0000     0.0000 </r>
       <r>   -26.4598     0.0000     0.0000 </r>
       <r>   -26.2753     0.0000     0.0000 </r>
       <r>   -26.0909     0.0000     0.0000 </r>
       <r>   -25.9064     0.0000     0.0000 </r>
       <r>   -25.7220     0.0000     0.0000 </r>
       <r>   -25.5375     0.0000     0.0000 </r>
       <r>   -25.3530     0.0000     0.0000 </r>
       <r>   -25.1686     0.0000     0.0000 </r>
       <r>   -24.9841     0.0000     0.0000 </r>
       <r>   -24.7997     0.0000     0.0000 </r>
       <r>   -24.6152     0.0000     0.0000 </r>
       <r>   -24.4307     0.0000     0.0000 </r>
       <r>   -24.2463     0.0000     0.0000 </r>
       <r>   -24.0618     0.0000     0.0000 </r>
       <r>   -23.8774     0.0000     0.0000 </r>
       <r>   -23.6929     0.0000     0.0000 </r>
       <r>   -23.5084     0.0000     0.0000 </r>
       <r>   -23.3240     0.0000     0.0000 </r>
       <r>   -23.1395     0.0000     0.0000 </r>
       <r>   -22.9551     0.0000     0.0000 </r>
       <r>   -22.7706     0.0000     0.0000 </r>
       <r>   -22.5861     0.0000     0.0000 </r>
       <r>   -22.4017     0.0000     0.0000 </r>
       <r>   -22.2172     0.0000     0.0000 </r>
       <r>   -22.0328     0.0000     0.0000 </r>
       <r>   -21.8483     0.0000     0.0000 </r>
       <r>   -21.6638     0.0000     0.0000 </r>
       <r>   -21.4794     0.0000     0.0000 </r>
       <r>   -21.2949     0.0000     0.0000 </r>
       <r>   -21.1105     0.0000     0.0000 </r>
       <r>   -20.9260     0.0000     0.0000 </r>
       <r>   -20.7415     0.0000     0.0000 </r>
       <r>   -20.5571     0.0000     0.0000 </r>
       <r>   -20.3726     0.0000     0.0000 </r>
       <r>   -20.1882     0.0000     0.0000 </r>
       <r>   -20.0037     0.0000     0.0000 </r>
       <r>   -19.8192     0.0000     0.0000 </r>
       <r>   -19.6348     0.0000     0.0000 </r>
       <r>   -19.4503     0.0000     0.0000 </r>
       <r>   -19.2659     0.0000     0.0000 </r>
       <r>   -19.0814     0.0000     0.0000 </r>
       <r>   -18.8969     0.0000     0.0000 </r>
       <r>   -18.7125     0.0000     0.0000 </r>
       <r>   -18.5280     0.0000     0.0000 </r>
       <r>   -18.3436     0.0000     0.0000 </r>
       <r>   -18.1591     0.0000     0.0000 </r>
       <r>   -17.9746     0.0000     0.0000 </r>
       <r>   -17.7902     0.0000     0.0000 </r>
       <r>   -17.6057     0.0000     0.0000 </r>
       <r>   -17.4213     0.0000     0.0000 </r>
       <r>   -17.2368     0.0000     0.0000 </r>
       <r>   -17.0523     0.0000     0.0000 </r>
       <r>   -16.8679     0.0000     0.0000 </r>
       <r>   -16.6834     0.0000     0.0000 </r>
       <r>   -16.4990     0.0000     0.0000 </r>
       <r>   -16.3145     0.0000     0.0000 </r>
       <r>   -16.1300     0.0000     0.0000 </r>
       <r>   -15.9456     0.0000     0.0000 </r>
       <r>   -15.7611     0.0000     0.0000 </r>
       <r>   -15.5767     0.0000     0.0000 </r>
       <r>   -15.3922     0.0000     0.0000 </r>
       <r>   -15.2077     0.0000     0.0000 </r>
       <r>   -15.0233     0.0000     0.0000 </r>
       <r>   -14.8388     0.0000     0.0000 </r>
       <r>   -14.6544     0.0000     0.0000 </r>
       <r>   -14.4699     0.0000     0.0000 </r>
       <r>   -14.2854     0.0000     0.0000 </r>
       <r>   -14.1010     0.0000     0.0000 </r>
       <r>   -13.9165     0.0000     0.0000 </r>
       <r>   -13.7321     0.0000     0.0000 </r>
       <r>   -13.5476     0.0000     0.0000 </r>
       <r>   -13.3631     0.0000     0.0000 </r>
       <r>   -13.1787     0.0000     0.0000 </r>
       <r>   -12.9942     0.0000     0.0000 </r>
       <r>   -12.8098     0.0000     0.0000 </r>
       <r>   -12.6253     0.0000     0.0000 </r>
       <r>   -12.4408     0.0000     0.0000 </r>
       <r>   -12.2564     0.0000     0.0000 </r>
       <r>   -12.0719     0.0000     0.0000 </r>
       <r>   -11.8875     0.0000     0.0000 </r>
       <r>   -11.7030     0.0000     0.0000 </r>
       <r>   -11.5185     0.0000     0.0000 </r>
       <r>   -11.3341     0.0000     0.0000 </r>
       <r>   -11.1496     0.0000     0.0000 </r>
       <r>   -10.9652     0.0000     0.0000 </r>
       <r>   -10.7807     0.0000     0.0000 </r>
       <r>   -10.5963     0.0000     0.0000 </r>
       <r>   -10.4118     0.0000     0.0000 </r>
       <r>   -10.2273     0.0000     0.0000 </r>
       <r>   -10.0429     0.0000     0.0000 </r>
       <r>    -9.8584     0.0000     0.0000 </r>
       <r>    -9.6740     0.0000     0.0000 </r>
       <r>    -9.4895     0.0000     0.0000 </r>
       <r>    -9.3050     0.0000     0.0000 </r>
       <r>    -9.1206     0.0000     0.0000 </r>
       <r>    -8.9361     0.0000     0.0000 </r>
       <r>    -8.7517     0.0000     0.0000 </r>
       <r>    -8.5672     0.0000     0.0000 </r>
       <r>    -8.3827     0.0000     0.0000 </r>
       <r>    -8.1983     0.0000     0.0000 </r>
       <r>    -8.0138     0.0000     0.0000 </r>
       <r>    -7.8294     0.0000     0.0000 </r>
       <r>    -7.6449     0.0000     0.0000 </r>
       <r>    -7.4604     0.0000     0.0000 </r>
       <r>    -7.2760     0.0000     0.0000 </r>
       <r>    -7.0915     0.0000     0.0000 </r>
       <r>    -6.9071     0.0000     0.0000 </r>
       <r>    -6.7226     0.0000     0.0000 </r>
       <r>    -6.5381     0.0000     0.0000 </r>
       <r>    -6.3537     0.0000     0.0000 </r>
       <r>    -6.1692     0.0000     0.0000 </r>
       <r>    -5.9848     0.0000     0.0000 </r>
       <r>    -5.8003     0.0000     0.0000 </r>
       <r>    -5.6158     0.0000     0.0000 </r>
       <r>    -5.4314     0.0000     0.0000 </r>
       <r>    -5.2469     0.0000     0.0000 </r>
       <r>    -5.0625     0.0000     0.0000 </r>
       <r>    -4.8780     0.0000     0.0000 </r>
       <r>    -4.6935     0.0000     0.0000 </r>
       <r>    -4.5091     0.0000     0.0000 </r>
       <r>    -4.3246     0.0000     0.0000 </r>
       <r>    -4.1402     0.0000     0.0000 </r>
       <r>    -3.9557     0.0000     0.0000 </r>
       <r>    -3.7712     0.0000     0.0000 </r>
       <r>    -3.5868     0.0000     0.0000 </r>
       <r>    -3.4023     0.0000     0.0000 </r>
       <r>    -3.2179     0.0000     0.0000 </r>
       <r>    -3.0334     0.0000     0.0000 </r>
       <r>    -2.8489     0.0000     0.0000 </r>
       <r>    -2.6645     0.0000     0.0000 </r>
       <r>    -2.4800     0.0000     0.0000 </r>
       <r>    -2.2956     0.0000     0.0000 </r>
       <r>    -2.1111     0.0000     0.0000 </r>
       <r>    -1.9266     0.0000     0.0000 </r>
       <r>    -1.7422     0.0000     0.0000 </r>
       <r>    -1.5577     0.0000     0.0000 </r>
       <r>    -1.3733     0.0000     0.0000 </r>
       <r>    -1.1888     0.0000     0.0000 </r>
       <r>    -1.0043     0.0000     0.0000 </r>
       <r>    -0.8199     0.0000     0.0000 </r>
       <r>    -0.6354     0.0000     0.0000 </r>
       <r>    -0.4510     0.0000     0.0000 </r>
       <r>    -0.2665     0.0000     0.0000 </r>
       <r>    -0.0820     0.0000     0.0000 </r>
       <r>     0.1024     0.0000     0.0000 </r>
       <r>     0.2869     0.0000     0.0000 </r>
       <r>     0.4713     0.0000     0.0000 </r>
       <r>     0.6558     0.0000     0.0000 </r>
       <r>     0.8403     0.0000     0.0000 </r>
       <r>     1.0247     0.0000     0.0000 </r>
       <r>     1.2092     0.0000     0.0000 </r>
       <r>     1.3936     0.0000     0.0000 </r>
       <r>     1.5781     0.0000     0.0000 </r>
       <r>     1.7626     0.0000     0.0000 </r>
       <r>     1.9470     0.0000     0.0000 </r>
       <r>     2.1315     0.0000     0.0000 </r>
       <r>     2.3159     0.0000     0.0000 </r>
       <r>     2.5004     0.0000     0.0000 </r>
       <r>     2.6849     0.0000     0.0000 </r>
       <r>     2.8693     0.0000     0.0000 </r>
       <r>     3.0538     0.0000     0.0000 </r>
       <r>     3.2382     0.0000     0.0000 </r>
       <r>     3.4227     0.0000     0.0000 </r>
       <r>     3.6072     0.0000     0.0000 </r>
       <r>     3.7916     0.0000     0.0000 </r>
       <r>     3.9761     0.0000     0.0000 </r>
       <r>     4.1605     0.0000     0.0000 </r>
       <r>     4.3450     0.0000     0.0000 </r>
       <r>     4.5295     0.0000     0.0000 </r>
       <r>     4.7139     0.0000     0.0000 </r>
       <r>     4.8984     0.0000     0.0000 </r>
       <r>     5.0828     0.0000     0.0000 </r>
       <r>     5.2673     0.0000     0.0000 </r>
       <r>     5.4518     0.0000     0.0000 </r>
       <r>     5.6362     0.0000     0.0000 </r>
       <r>     5.8207     0.0000     0.0000 </r>
       <r>     6.0051     0.0000     0.0000 </r>
       <r>     6.1896     0.0000     0.0000 </r>
       <r>     6.3741     0.0000     0.0000 </r>
       <r>     6.5585     0.0000     0.0000 </r>
       <r>     6.7430     0.0000     0.0000 </r>
       <r>     6.9274     0.0000     0.0000 </r>
       <r>     7.1119     0.0000     0.0000 </r>
       <r>     7.2964     0.0000     0.0000 </r>
       <r>     7.4808     0.0000     0.0000 </r>
       <r>     7.6653     0.0000     0.0000 </r>
       <r>     7.8497     0.0000     0.0000 </r>
       <r>     8.0342     0.0000     0.0000 </r>
       <r>     8.2187     0.0000     0.0000 </r>
       <r>     8.4031     0.0000     0.0000 </r>
       <r>     8.5876     0.0000     0.0000 </r>
       <r>     8.7720     0.0000     0.0000 </r>
       <r>     8.9565     0.0000     0.0000 </r>
       <r>     9.1410     0.0000     0.0000 </r>
       <r>     9.3254     0.0000     0.0000 </r>
       <r>     9.5099     0.0000     0.0000 </r>
       <r>     9.6943     0.0000     0.0000 </r>
       <r>     9.8788     0.0000     0.0000 </r>
       <r>    10.0633     0.0000     0.0000 </r>
       <r>    10.2477     0.0000     0.0000 </r>
       <r>    10.4322     0.0000     0.0000 </r>
       <r>    10.6166     0.0000     0.0000 </r>
      </set>
     </set>
    </array>
   </total>
  </dos>
 </calculation>
 <structure name="finalpos" >
  <crystal>
   <varray name="basis" >
    <v>       1.61415312      -2.79579451       0.00000000 </v>
    <v>       1.61415312       2.79579451       0.00000000 </v>
    <v>       0.00000000       0.00000000      34.96267827 </v>
   </varray>
   <i name="volume">    315.56197699 </i>
   <varray name="rec_basis" >
    <v>       0.30975996      -0.17884004       0.00000000 </v>
    <v>       0.30975996       0.17884004       0.00000000 </v>
    <v>       0.00000000       0.00000000       0.02860193 </v>
   </varray>
  </crystal>
  <varray name="positions" >
   <v>       0.66666700       0.33333300       0.10664700 </v>
   <v>       0.33333300       0.66666700       0.06198962 </v>
   <v>       0.33333300       0.66666700       0.15130538 </v>
  </varray>
 </structure>
</modeling>
