 running on    8 total cores
 distrk:  each k-point on    8 cores,    1 groups
 distr:  one band on    1 cores,    8 groups
 using from now: INCAR     
 vasp.5.4.1 05Feb16 (build Feb 01 2017 11:38:15) complex                        
  
 POSCAR found type information on POSCAR  Mo S 
 POSCAR found :  2 types and       3 ions
 scaLAPACK will be used

 ----------------------------------------------------------------------------- 
|                                                                             |
|           W    W    AA    RRRRR   N    N  II  N    N   GGGG   !!!           |
|           W    W   A  A   R    R  NN   N  II  NN   N  G    G  !!!           |
|           W    W  A    A  R    R  N N  N  II  N N  N  G       !!!           |
|           W WW W  AAAAAA  RRRRR   N  N N  II  N  N N  G  GGG   !            |
|           WW  WW  A    A  R   R   N   NN  II  N   NN  G    G                |
|           W    W  A    A  R    R  N    N  II  N    N   GGGG   !!!           |
|                                                                             |
|      For optimal performance we recommend to set                            |
|        NCORE= 4 - approx SQRT( number of cores)                             |
|      NCORE specifies how many cores store one orbital (NPAR=cpu/NCORE).     |
|      This setting can  greatly improve the performance of VASP for DFT.     |
|      The default, NPAR=number of cores might be grossly inefficient         |
|      on modern multi-core architectures or massively parallel machines.     |
|      Do your own testing !!!!                                               |
|      Unfortunately you need to use the default for GW and RPA calculations. |
|      (for HF NCORE is supported but not extensively tested yet)             |
|                                                                             |
 ----------------------------------------------------------------------------- 

 LDA part: xc-table for Pade appr. of Perdew
 found WAVECAR, reading the header
  number of k-points has changed, file:   144 present:   576
  trying to continue reading WAVECAR, but it might fail
 WARNING: stress and forces are not correct
 POSCAR, INCAR and KPOINTS ok, starting setup
 FFT: planning ...
 reading WAVECAR
 the WAVECAR file was read successfully
 reading imaginary part of occupancies ...
 charge-density read from file: MoS2                                    
 reading imaginary part of occupancies ...
 magnetization density read from file 1
 reading imaginary part of occupancies ...
 magnetization density read from file 2
 reading imaginary part of occupancies ...
 magnetization density read from file 3
 entering main loop
       N       E                     dE             d eps       ncg     rms          ort
 gam= 0.000 g(H,U,f)=  0.136E+03 0.535E+02 0.109E-39 ort(H,U,f) = 0.000E+00 0.000E+00 0.000E+00
SDA:   1     0.972890673290E+02    0.97289E+02    0.00000E+00 23040   0.190E+03 0.000E+00
 gam= 0.000 trial= 0.400  step= 0.817 mean= 0.400
 gam= 0.707 g(H,U,f)=  0.115E+03 0.180E+02 0.135E+01 ort(H,U,f) =-0.458E+02 0.227E+02-0.679E+00
CGA:   2     0.262117692630E+02   -0.71077E+02   -0.77521E+02 23040   0.134E+03-0.238E+02
 gam= 0.707 trial= 0.421  step= 0.415 mean= 0.421
 gam= 0.326 g(H,U,f)=  0.360E+02 0.583E+01 0.182E+01 ort(H,U,f) =-0.739E+01 0.132E+02-0.223E+01
CGA:   3     0.193407302209E+01   -0.24278E+02   -0.24317E+02 23040   0.437E+02 0.362E+01
 gam= 0.326 trial= 0.421  step= 0.414 mean= 0.421
 gam= 0.636 g(H,U,f)=  0.226E+02 0.286E+01 0.229E+01 ort(H,U,f) =-0.726E+01 0.627E+01 0.135E+01
CGA:   4    -0.733964236565E+01   -0.92737E+01   -0.92823E+01 23040   0.277E+02 0.354E+00
 gam= 0.636 trial= 0.420  step= 0.531 mean= 0.420
 gam= 0.590 g(H,U,f)=  0.137E+02 0.836E+00 0.186E+01 ort(H,U,f) =-0.460E+01 0.315E+01 0.264E+01
CGA:   5    -0.148645023555E+02   -0.75249E+01   -0.74199E+01 23040   0.164E+02 0.119E+01
 gam= 0.590 trial= 0.426  step= 0.458 mean= 0.426
 gam= 0.437 g(H,U,f)=  0.629E+01 0.260E+00 0.598E+00 ort(H,U,f) =-0.244E+01 0.962E+00 0.145E+01
CGA:   6    -0.187754655131E+02   -0.39110E+01   -0.39058E+01 23040   0.715E+01-0.288E-01
 gam= 0.437 trial= 0.427  step= 0.458 mean= 0.427
 gam= 0.416 g(H,U,f)=  0.255E+01 0.148E+00 0.271E+00 ort(H,U,f) =-0.544E+00 0.209E+00 0.739E+00
CGA:   7    -0.204197774012E+02   -0.16443E+01   -0.16325E+01 23040   0.297E+01 0.403E+00
 gam= 0.416 trial= 0.429  step= 0.450 mean= 0.429
 gam= 0.338 g(H,U,f)=  0.817E+00 0.122E+00 0.674E-01 ort(H,U,f) =-0.327E-01 0.165E+00 0.214E+00
CGA:   8    -0.211355755439E+02   -0.71580E+00   -0.70680E+00 23040   0.101E+01 0.345E+00
 gam= 0.338 trial= 0.430  step= 0.647 mean= 0.430
 gam= 0.582 g(H,U,f)=  0.519E+00 0.666E-01 0.110E-08 ort(H,U,f) =-0.312E+00 0.122E+00 0.455E-08
CGA:   9    -0.215069888155E+02   -0.37141E+00   -0.36313E+00 23040   0.585E+00-0.190E+00
 gam= 0.582 trial= 0.441  step= 0.458 mean= 0.441
 gam= 0.416 g(H,U,f)=  0.212E+00 0.314E-01 0.733E-12 ort(H,U,f) =-0.676E-01 0.680E-01 0.562E-11
CGA:  10    -0.216156675974E+02   -0.10868E+00   -0.10869E+00 23040   0.244E+00 0.366E-03
 gam= 0.416 trial= 0.442  step= 0.587 mean= 0.442
 gam= 0.491 g(H,U,f)=  0.107E+00 0.128E-01 0.270E-15 ort(H,U,f) =-0.246E-01 0.242E-01-0.584E-15
CGA:  11    -0.216871969136E+02   -0.71529E-01   -0.71601E-01 23040   0.120E+00-0.421E-03
 gam= 0.491 trial= 0.449  step= 0.500 mean= 0.449
 gam= 0.412 g(H,U,f)=  0.430E-01 0.627E-02 0.191E-17 ort(H,U,f) =-0.901E-02 0.917E-02-0.293E-18
CGA:  12    -0.217170820475E+02   -0.29885E-01   -0.29889E-01 23040   0.493E-01 0.160E-03
 gam= 0.412 trial= 0.451  step= 0.569 mean= 0.451
 gam= 0.429 g(H,U,f)=  0.179E-01 0.324E-02 0.473E-48 ort(H,U,f) =-0.347E-02 0.366E-02 0.625E-48
CGA:  13    -0.217311292329E+02   -0.14047E-01   -0.14038E-01 23040   0.211E-01 0.192E-03
 gam= 0.429 trial= 0.457  step= 0.563 mean= 0.457
 gam= 0.432 g(H,U,f)=  0.746E-02 0.169E-02 0.496E-26 ort(H,U,f) =-0.207E-02 0.217E-02 0.113E-25
CGA:  14    -0.217371115220E+02   -0.59823E-02   -0.59766E-02 23040   0.914E-02 0.104E-03
 gam= 0.432 trial= 0.463  step= 0.608 mean= 0.463
 gam= 0.455 g(H,U,f)=  0.341E-02 0.749E-03 0.243E-51 ort(H,U,f) =-0.116E-02 0.121E-02 0.851E-51
CGA:  15    -0.217399065242E+02   -0.27950E-02   -0.27913E-02 23040   0.416E-02 0.443E-04
 gam= 0.455 trial= 0.470  step= 0.623 mean= 0.470
 gam= 0.444 g(H,U,f)=  0.156E-02 0.289E-03 0.610E-36 ort(H,U,f) =-0.511E-03 0.528E-03 0.467E-35
CGA:  16    -0.217412100654E+02   -0.13035E-02   -0.13020E-02 23040   0.185E-02 0.161E-04
 gam= 0.444 trial= 0.478  step= 0.643 mean= 0.478
 gam= 0.441 g(H,U,f)=  0.705E-03 0.109E-03 0.188E-26 ort(H,U,f) =-0.167E-03 0.172E-03-0.172E-25
CGA:  17    -0.217418059141E+02   -0.59585E-03   -0.59535E-03 23040   0.814E-03 0.459E-05
 gam= 0.441 trial= 0.486  step= 0.647 mean= 0.486
 gam= 0.414 g(H,U,f)=  0.289E-03 0.483E-04 0.991E-35 ort(H,U,f) =-0.488E-04 0.495E-04-0.228E-34
CGA:  18    -0.217420702378E+02   -0.26432E-03   -0.26423E-03 23040   0.337E-03 0.734E-06
 gam= 0.414 trial= 0.494  step= 0.667 mean= 0.494
 gam= 0.423 g(H,U,f)=  0.119E-03 0.243E-04 0.330E-21 ort(H,U,f) =-0.213E-04 0.212E-04-0.613E-23
CGA:  19    -0.217421828517E+02   -0.11261E-03   -0.11262E-03 23040   0.143E-03-0.874E-07
 gam= 0.423 trial= 0.503  step= 0.685 mean= 0.503
 gam= 0.430 g(H,U,f)=  0.498E-04 0.116E-04 0.618E-48 ort(H,U,f) =-0.130E-04 0.129E-04 0.839E-48
CGA:  20    -0.217422317525E+02   -0.48901E-04   -0.48912E-04 23040   0.614E-04-0.100E-06
 gam= 0.430 trial= 0.512  step= 0.713 mean= 0.512
 gam= 0.447 g(H,U,f)=  0.227E-04 0.478E-05 0.475E-22 ort(H,U,f) =-0.679E-05 0.675E-05 0.135E-21
CGA:  21    -0.217422536300E+02   -0.21877E-04   -0.21883E-04 23040   0.274E-04-0.344E-07
 gam= 0.447 trial= 0.522  step= 0.725 mean= 0.522
 gam= 0.434 g(H,U,f)=  0.101E-04 0.178E-05 0.608E-30 ort(H,U,f) =-0.256E-05 0.255E-05 0.386E-29
CGA:  22    -0.217422635690E+02   -0.99391E-05   -0.99413E-05 23040   0.119E-04-0.101E-07
 gam= 0.434 trial= 0.532  step= 0.721 mean= 0.532
 gam= 0.413 g(H,U,f)=  0.419E-05 0.730E-06 0.132E-37 ort(H,U,f) =-0.762E-06 0.752E-06-0.107E-36
CGA:  23    -0.217422678576E+02   -0.42886E-05   -0.42904E-05 23040   0.492E-05-0.940E-08
 gam= 0.413 trial= 0.541  step= 0.731 mean= 0.541
 gam= 0.419 g(H,U,f)=  0.172E-05 0.344E-06 0.292E-28 ort(H,U,f) =-0.286E-06 0.275E-06-0.706E-28
CGA:  24    -0.217422696518E+02   -0.17942E-05   -0.17962E-05 23040   0.206E-05-0.109E-07
 gam= 0.419 trial= 0.551  step= 0.748 mean= 0.551
 gam= 0.430 g(H,U,f)=  0.724E-06 0.162E-06 0.138E-48 ort(H,U,f) =-0.157E-06 0.150E-06-0.319E-50
CGA:  25    -0.217422704190E+02   -0.76722E-06   -0.76894E-06 23040   0.886E-06-0.746E-08
 gam= 0.430 trial= 0.561  step= 0.771 mean= 0.561
 gam= 0.440 g(H,U,f)=  0.322E-06 0.682E-07 0.100E-32 ort(H,U,f) =-0.816E-07 0.773E-07 0.137E-32
CGA:  26    -0.217422707578E+02   -0.33872E-06   -0.34019E-06 23040   0.390E-06-0.426E-08
 gam= 0.440 trial= 0.571  step= 0.774 mean= 0.571
 gam= 0.429 g(H,U,f)=  0.140E-06 0.270E-07 0.417E-47 ort(H,U,f) =-0.339E-07 0.310E-07 0.129E-46
CGA:  27    -0.217422709069E+02   -0.14911E-06   -0.15027E-06 23040   0.167E-06-0.286E-08
 gam= 0.429 trial= 0.581  step= 0.788 mean= 0.581
 gam= 0.429 g(H,U,f)=  0.607E-07 0.112E-07 0.574E-27 ort(H,U,f) =-0.132E-07 0.101E-07 0.456E-26
CGA:  28    -0.217422709711E+02   -0.64190E-07   -0.65458E-07 23040   0.719E-07-0.316E-08
 gam= 0.429 trial= 0.592  step= 0.811 mean= 0.592
   1 F= -.21742271E+02 E0= -.21742271E+02  d E =-.764165E-25  mag=     0.0000     0.0000     0.0000
 writing wavefunctions
