  150  150    1    2
  0.4150140E+02  0.1595158E-08  0.1595158E-08  0.2824984E-08  0.5000000E-15
  1.000000000000000E-004
  CAR 
 MoSSe-WSSe static SCF calculation       
   1200      8    800
 
  0.0000000E+00  0.0000000E+00  0.0000000E+00  0.2040816E-01
    1      -38.821576    -38.821582   1.000000   1.000000
    2      -38.821576    -38.821582   1.000000   1.000000
    3      -38.821576    -38.821582   1.000000   1.000000
    4      -38.821576    -38.821582   1.000000   1.000000
    5      -38.821569    -38.821575   1.000000   1.000000
    6      -38.821569    -38.821575   1.000000   1.000000
    7      -38.814356    -38.814363   1.000000   1.000000
    8      -38.814356    -38.814363   1.000000   1.000000
    9      -38.814356    -38.814363   1.000000   1.000000
   10      -38.814356    -38.814363   1.000000   1.000000
   11      -38.814349    -38.814356   1.000000   1.000000
   12      -38.814349    -38.814356   1.000000   1.000000
   13      -38.759212    -38.759219   1.000000   1.000000
   14      -38.759212    -38.759219   1.000000   1.000000
   15      -38.759205    -38.759212   1.000000   1.000000
   16      -38.759205    -38.759212   1.000000   1.000000
   17      -38.759205    -38.759212   1.000000   1.000000
   18      -38.759205    -38.759212   1.000000   1.000000
   19      -38.723082    -38.723089   1.000000   1.000000
   20      -38.702076    -38.702083   1.000000   1.000000
   21      -38.702076    -38.702083   1.000000   1.000000
   22      -38.702076    -38.702083   1.000000   1.000000
   23      -38.702076    -38.702083   1.000000   1.000000
   24      -38.702076    -38.702083   1.000000   1.000000
   25      -38.702076    -38.702083   1.000000   1.000000
   26      -38.675186    -38.675193   1.000000   1.000000
   27      -38.675186    -38.675193   1.000000   1.000000
   28      -38.675180    -38.675186   1.000000   1.000000
   29      -38.675180    -38.675186   1.000000   1.000000
   30      -38.675180    -38.675186   1.000000   1.000000
   31      -38.675180    -38.675186   1.000000   1.000000
   32      -38.674445    -38.674453   1.000000   1.000000
   33      -38.674445    -38.674453   1.000000   1.000000
   34      -38.674445    -38.674453   1.000000   1.000000
   35      -38.674445    -38.674453   1.000000   1.000000
   36      -38.674445    -38.674452   1.000000   1.000000
   37      -38.674445    -38.674452   1.000000   1.000000
   38      -38.667890    -38.667897   1.000000   1.000000
   39      -38.667890    -38.667897   1.000000   1.000000
   40      -38.667890    -38.667897   1.000000   1.000000
   41      -38.667890    -38.667897   1.000000   1.000000
   42      -38.667890    -38.667897   1.000000   1.000000
   43      -38.667890    -38.667897   1.000000   1.000000
   44      -38.657334    -38.657341   1.000000   1.000000
   45      -38.657334    -38.657341   1.000000   1.000000
   46      -38.657334    -38.657341   1.000000   1.000000
   47      -38.657334    -38.657341   1.000000   1.000000
   48      -38.657334    -38.657341   1.000000   1.000000
   49      -38.657334    -38.657341   1.000000   1.000000
   50      -38.642834    -38.642841   1.000000   1.000000
   51      -38.642834    -38.642841   1.000000   1.000000
   52      -38.642834    -38.642841   1.000000   1.000000
   53      -38.642834    -38.642841   1.000000   1.000000
   54      -38.642827    -38.642834   1.000000   1.000000
   55      -38.642827    -38.642834   1.000000   1.000000
   56      -38.620028    -38.620034   1.000000   1.000000
   57      -38.620028    -38.620034   1.000000   1.000000
   58      -38.620028    -38.620034   1.000000   1.000000
   59      -38.620028    -38.620034   1.000000   1.000000
   60      -38.620021    -38.620028   1.000000   1.000000
   61      -38.620021    -38.620028   1.000000   1.000000
   62      -38.598627    -38.598634   1.000000   1.000000
   63      -38.598627    -38.598634   1.000000   1.000000
   64      -38.598621    -38.598628   1.000000   1.000000
   65      -38.598621    -38.598628   1.000000   1.000000
   66      -38.598621    -38.598628   1.000000   1.000000
   67      -38.598621    -38.598628   1.000000   1.000000
   68      -38.556008    -38.556015   1.000000   1.000000
   69      -38.556008    -38.556015   1.000000   1.000000
   70      -38.556001    -38.556008   1.000000   1.000000
   71      -38.556001    -38.556008   1.000000   1.000000
   72      -38.556001    -38.556008   1.000000   1.000000
   73      -38.556001    -38.556008   1.000000   1.000000
   74      -38.529483    -38.529489   1.000000   1.000000
   75      -38.529474    -38.529480   1.000000   1.000000
   76      -35.548025    -35.548032   1.000000   1.000000
   77      -35.548025    -35.548032   1.000000   1.000000
   78      -35.548025    -35.548032   1.000000   1.000000
   79      -35.548025    -35.548032   1.000000   1.000000
   80      -35.548018    -35.548025   1.000000   1.000000
   81      -35.548018    -35.548025   1.000000   1.000000
   82      -35.539983    -35.539990   1.000000   1.000000
   83      -35.539983    -35.539990   1.000000   1.000000
   84      -35.539983    -35.539990   1.000000   1.000000
   85      -35.539983    -35.539990   1.000000   1.000000
   86      -35.539976    -35.539983   1.000000   1.000000
   87      -35.539976    -35.539983   1.000000   1.000000
   88      -35.478983    -35.478990   1.000000   1.000000
   89      -35.478983    -35.478990   1.000000   1.000000
   90      -35.478976    -35.478983   1.000000   1.000000
   91      -35.478976    -35.478983   1.000000   1.000000
   92      -35.478976    -35.478983   1.000000   1.000000
   93      -35.478976    -35.478983   1.000000   1.000000
   94      -35.474631    -35.474638   1.000000   1.000000
   95      -35.449285    -35.449292   1.000000   1.000000
   96      -35.449285    -35.449292   1.000000   1.000000
   97      -35.449285    -35.449292   1.000000   1.000000
   98      -35.449285    -35.449292   1.000000   1.000000
   99      -35.449285    -35.449292   1.000000   1.000000
  100      -35.449285    -35.449292   1.000000   1.000000
  101      -35.415930    -35.415936   1.000000   1.000000
  102      -35.415930    -35.415936   1.000000   1.000000
  103      -35.415930    -35.415936   1.000000   1.000000
  104      -35.415930    -35.415936   1.000000   1.000000
  105      -35.415929    -35.415936   1.000000   1.000000
  106      -35.415929    -35.415936   1.000000   1.000000
  107      -35.408015    -35.408022   1.000000   1.000000
  108      -35.408015    -35.408022   1.000000   1.000000
  109      -35.408015    -35.408022   1.000000   1.000000
  110      -35.408015    -35.408022   1.000000   1.000000
  111      -35.408015    -35.408022   1.000000   1.000000
  112      -35.408015    -35.408022   1.000000   1.000000
  113      -35.395280    -35.395287   1.000000   1.000000
  114      -35.395280    -35.395287   1.000000   1.000000
  115      -35.395280    -35.395287   1.000000   1.000000
  116      -35.395280    -35.395287   1.000000   1.000000
  117      -35.395280    -35.395287   1.000000   1.000000
  118      -35.395280    -35.395287   1.000000   1.000000
  119      -35.384047    -35.384054   1.000000   1.000000
  120      -35.384047    -35.384054   1.000000   1.000000
  121      -35.384041    -35.384048   1.000000   1.000000
  122      -35.384041    -35.384048   1.000000   1.000000
  123      -35.384041    -35.384048   1.000000   1.000000
  124      -35.384041    -35.384048   1.000000   1.000000
  125      -35.350159    -35.350166   1.000000   1.000000
  126      -35.350159    -35.350166   1.000000   1.000000
  127      -35.350159    -35.350166   1.000000   1.000000
  128      -35.350159    -35.350166   1.000000   1.000000
  129      -35.350152    -35.350159   1.000000   1.000000
  130      -35.350152    -35.350159   1.000000   1.000000
  131      -35.323424    -35.323431   1.000000   1.000000
  132      -35.323424    -35.323431   1.000000   1.000000
  133      -35.323424    -35.323431   1.000000   1.000000
  134      -35.323424    -35.323431   1.000000   1.000000
  135      -35.323417    -35.323424   1.000000   1.000000
  136      -35.323417    -35.323424   1.000000   1.000000
  137      -35.299410    -35.299417   1.000000   1.000000
  138      -35.299410    -35.299417   1.000000   1.000000
  139      -35.299403    -35.299410   1.000000   1.000000
  140      -35.299403    -35.299410   1.000000   1.000000
  141      -35.299403    -35.299410   1.000000   1.000000
  142      -35.299403    -35.299410   1.000000   1.000000
  143      -35.253191    -35.253198   1.000000   1.000000
  144      -35.253191    -35.253198   1.000000   1.000000
  145      -35.253184    -35.253191   1.000000   1.000000
  146      -35.253184    -35.253191   1.000000   1.000000
  147      -35.253184    -35.253191   1.000000   1.000000
  148      -35.253184    -35.253191   1.000000   1.000000
  149      -35.224412    -35.224419   1.000000   1.000000
  150      -35.224403    -35.224410   1.000000   1.000000
  151      -15.492644    -15.492640   1.000000   1.000000
  152      -14.862544    -14.862540   1.000000   1.000000
  153      -14.862544    -14.862540   1.000000   1.000000
  154      -14.862542    -14.862538   1.000000   1.000000
  155      -14.862542    -14.862538   1.000000   1.000000
  156      -14.862542    -14.862538   1.000000   1.000000
  157      -14.862542    -14.862538   1.000000   1.000000
  158      -14.836243    -14.836239   1.000000   1.000000
  159      -14.259659    -14.259655   1.000000   1.000000
  160      -14.259659    -14.259655   1.000000   1.000000
  161      -14.259657    -14.259653   1.000000   1.000000
  162      -14.259657    -14.259653   1.000000   1.000000
  163      -14.259657    -14.259653   1.000000   1.000000
  164      -14.259657    -14.259653   1.000000   1.000000
  165      -14.021439    -14.021433   1.000000   1.000000
  166      -13.857384    -13.857379   1.000000   1.000000
  167      -13.857384    -13.857379   1.000000   1.000000
  168      -13.857384    -13.857379   1.000000   1.000000
  169      -13.857384    -13.857379   1.000000   1.000000
  170      -13.857380    -13.857375   1.000000   1.000000
  171      -13.857380    -13.857375   1.000000   1.000000
  172      -13.728250    -13.728244   1.000000   1.000000
  173      -13.728250    -13.728244   1.000000   1.000000
  174      -13.728250    -13.728244   1.000000   1.000000
  175      -13.728250    -13.728244   1.000000   1.000000
  176      -13.728248    -13.728242   1.000000   1.000000
  177      -13.728248    -13.728242   1.000000   1.000000
  178      -13.553147    -13.553143   1.000000   1.000000
  179      -13.549145    -13.549140   1.000000   1.000000
  180      -13.549145    -13.549140   1.000000   1.000000
  181      -13.549138    -13.549133   1.000000   1.000000
  182      -13.549138    -13.549133   1.000000   1.000000
  183      -13.549138    -13.549133   1.000000   1.000000
  184      -13.549138    -13.549133   1.000000   1.000000
  185      -13.348184    -13.348180   1.000000   1.000000
  186      -13.348184    -13.348180   1.000000   1.000000
  187      -13.348184    -13.348180   1.000000   1.000000
  188      -13.348184    -13.348180   1.000000   1.000000
  189      -13.348182    -13.348178   1.000000   1.000000
  190      -13.348182    -13.348178   1.000000   1.000000
  191      -13.273433    -13.273428   1.000000   1.000000
  192      -13.273433    -13.273428   1.000000   1.000000
  193      -13.273429    -13.273423   1.000000   1.000000
  194      -13.273429    -13.273423   1.000000   1.000000
  195      -13.273429    -13.273423   1.000000   1.000000
  196      -13.273429    -13.273423   1.000000   1.000000
  197      -13.260534    -13.260530   1.000000   1.000000
  198      -13.260534    -13.260530   1.000000   1.000000
  199      -13.260534    -13.260530   1.000000   1.000000
  200      -13.260534    -13.260530   1.000000   1.000000
  201      -13.260532    -13.260528   1.000000   1.000000
  202      -13.260532    -13.260528   1.000000   1.000000
  203      -13.157728    -13.157723   1.000000   1.000000
  204      -13.157728    -13.157723   1.000000   1.000000
  205      -13.157728    -13.157723   1.000000   1.000000
  206      -13.157728    -13.157723   1.000000   1.000000
  207      -13.157721    -13.157716   1.000000   1.000000
  208      -13.157721    -13.157716   1.000000   1.000000
  209      -13.073566    -13.073562   1.000000   1.000000
  210      -13.073566    -13.073562   1.000000   1.000000
  211      -13.073561    -13.073557   1.000000   1.000000
  212      -13.073561    -13.073557   1.000000   1.000000
  213      -13.073561    -13.073557   1.000000   1.000000
  214      -13.073561    -13.073557   1.000000   1.000000
  215      -13.054485    -13.054480   1.000000   1.000000
  216      -13.054485    -13.054480   1.000000   1.000000
  217      -13.054481    -13.054476   1.000000   1.000000
  218      -13.054481    -13.054476   1.000000   1.000000
  219      -13.054481    -13.054476   1.000000   1.000000
  220      -13.054481    -13.054476   1.000000   1.000000
  221      -12.922673    -12.922668   1.000000   1.000000
  222      -12.922673    -12.922668   1.000000   1.000000
  223      -12.922673    -12.922668   1.000000   1.000000
  224      -12.922673    -12.922668   1.000000   1.000000
  225      -12.922669    -12.922664   1.000000   1.000000
  226      -12.922669    -12.922664   1.000000   1.000000
  227      -12.806168    -12.806164   1.000000   1.000000
  228      -12.806168    -12.806164   1.000000   1.000000
  229      -12.806164    -12.806160   1.000000   1.000000
  230      -12.806164    -12.806160   1.000000   1.000000
  231      -12.806164    -12.806160   1.000000   1.000000
  232      -12.806164    -12.806160   1.000000   1.000000
  233      -12.687141    -12.687137   1.000000   1.000000
  234      -12.687141    -12.687137   1.000000   1.000000
  235      -12.687141    -12.687137   1.000000   1.000000
  236      -12.687141    -12.687137   1.000000   1.000000
  237      -12.687136    -12.687132   1.000000   1.000000
  238      -12.687136    -12.687132   1.000000   1.000000
  239      -12.644169    -12.644165   1.000000   1.000000
  240      -12.644169    -12.644165   1.000000   1.000000
  241      -12.644168    -12.644164   1.000000   1.000000
  242      -12.644168    -12.644164   1.000000   1.000000
  243      -12.644168    -12.644164   1.000000   1.000000
  244      -12.644168    -12.644164   1.000000   1.000000
  245      -12.447537    -12.447533   1.000000   1.000000
  246      -12.447537    -12.447533   1.000000   1.000000
  247      -12.447537    -12.447533   1.000000   1.000000
  248      -12.447537    -12.447533   1.000000   1.000000
  249      -12.447535    -12.447531   1.000000   1.000000
  250      -12.447535    -12.447531   1.000000   1.000000
  251       -6.982093     -6.982093   1.000000   1.000000
  252       -6.738510     -6.738509   1.000000   1.000000
  253       -6.738510     -6.738509   1.000000   1.000000
  254       -6.738510     -6.738509   1.000000   1.000000
  255       -6.738510     -6.738509   1.000000   1.000000
  256       -6.738497     -6.738496   1.000000   1.000000
  257       -6.738497     -6.738496   1.000000   1.000000
  258       -6.545520     -6.545518   1.000000   1.000000
  259       -6.545520     -6.545518   1.000000   1.000000
  260       -6.545520     -6.545518   1.000000   1.000000
  261       -6.545520     -6.545518   1.000000   1.000000
  262       -6.545506     -6.545504   1.000000   1.000000
  263       -6.545506     -6.545504   1.000000   1.000000
  264       -6.251666     -6.251666   1.000000   1.000000
  265       -6.251666     -6.251666   1.000000   1.000000
  266       -6.251663     -6.251662   1.000000   1.000000
  267       -6.251663     -6.251662   1.000000   1.000000
  268       -6.251663     -6.251662   1.000000   1.000000
  269       -6.251663     -6.251662   1.000000   1.000000
  270       -6.092090     -6.092089   1.000000   1.000000
  271       -6.068744     -6.068743   1.000000   1.000000
  272       -6.068744     -6.068743   1.000000   1.000000
  273       -6.068735     -6.068734   1.000000   1.000000
  274       -6.068735     -6.068734   1.000000   1.000000
  275       -6.068735     -6.068734   1.000000   1.000000
  276       -6.068735     -6.068734   1.000000   1.000000
  277       -6.026949     -6.026948   1.000000   1.000000
  278       -6.026949     -6.026948   1.000000   1.000000
  279       -6.026949     -6.026948   1.000000   1.000000
  280       -6.026949     -6.026948   1.000000   1.000000
  281       -6.026940     -6.026938   1.000000   1.000000
  282       -6.026940     -6.026938   1.000000   1.000000
  283       -5.926289     -5.926288   1.000000   1.000000
  284       -5.926289     -5.926288   1.000000   1.000000
  285       -5.926285     -5.926285   1.000000   1.000000
  286       -5.926285     -5.926285   1.000000   1.000000
  287       -5.926285     -5.926285   1.000000   1.000000
  288       -5.926285     -5.926285   1.000000   1.000000
  289       -5.837140     -5.837138   1.000000   1.000000
  290       -5.837140     -5.837138   1.000000   1.000000
  291       -5.837140     -5.837138   1.000000   1.000000
  292       -5.837140     -5.837138   1.000000   1.000000
  293       -5.837132     -5.837130   1.000000   1.000000
  294       -5.837132     -5.837130   1.000000   1.000000
  295       -5.609412     -5.609410   1.000000   1.000000
  296       -5.609412     -5.609410   1.000000   1.000000
  297       -5.609405     -5.609402   1.000000   1.000000
  298       -5.609405     -5.609402   1.000000   1.000000
  299       -5.609405     -5.609402   1.000000   1.000000
  300       -5.609405     -5.609402   1.000000   1.000000
  301       -5.582520     -5.582519   1.000000   1.000000
  302       -5.582520     -5.582519   1.000000   1.000000
  303       -5.582515     -5.582514   1.000000   1.000000
  304       -5.582515     -5.582514   1.000000   1.000000
  305       -5.582515     -5.582514   1.000000   1.000000
  306       -5.582515     -5.582514   1.000000   1.000000
  307       -5.495736     -5.495736   1.000000   1.000000
  308       -5.495736     -5.495736   1.000000   1.000000
  309       -5.495733     -5.495732   1.000000   1.000000
  310       -5.495733     -5.495732   1.000000   1.000000
  311       -5.495732     -5.495732   1.000000   1.000000
  312       -5.495732     -5.495732   1.000000   1.000000
  313       -5.389239     -5.389239   1.000000   1.000000
  314       -5.389239     -5.389239   1.000000   1.000000
  315       -5.389237     -5.389237   1.000000   1.000000
  316       -5.389237     -5.389237   1.000000   1.000000
  317       -5.389237     -5.389237   1.000000   1.000000
  318       -5.389237     -5.389237   1.000000   1.000000
  319       -5.163283     -5.163281   1.000000   1.000000
  320       -5.163283     -5.163281   1.000000   1.000000
  321       -5.163276     -5.163274   1.000000   1.000000
  322       -5.163276     -5.163274   1.000000   1.000000
  323       -5.163276     -5.163274   1.000000   1.000000
  324       -5.163276     -5.163274   1.000000   1.000000
  325       -5.044800     -5.044799   1.000000   1.000000
  326       -5.044800     -5.044799   1.000000   1.000000
  327       -5.044800     -5.044799   1.000000   1.000000
  328       -5.044800     -5.044799   1.000000   1.000000
  329       -5.044796     -5.044795   1.000000   1.000000
  330       -5.044796     -5.044795   1.000000   1.000000
  331       -4.976359     -4.976358   1.000000   1.000000
  332       -4.976359     -4.976358   1.000000   1.000000
  333       -4.976359     -4.976358   1.000000   1.000000
  334       -4.976359     -4.976358   1.000000   1.000000
  335       -4.976347     -4.976346   1.000000   1.000000
  336       -4.976347     -4.976346   1.000000   1.000000
  337       -4.935374     -4.935374   1.000000   1.000000
  338       -4.935374     -4.935374   1.000000   1.000000
  339       -4.935362     -4.935362   1.000000   1.000000
  340       -4.935362     -4.935362   1.000000   1.000000
  341       -4.935362     -4.935362   1.000000   1.000000
  342       -4.935362     -4.935362   1.000000   1.000000
  343       -4.773656     -4.773656   1.000000   1.000000
  344       -4.773656     -4.773656   1.000000   1.000000
  345       -4.773647     -4.773647   1.000000   1.000000
  346       -4.773647     -4.773647   1.000000   1.000000
  347       -4.773647     -4.773647   1.000000   1.000000
  348       -4.773647     -4.773647   1.000000   1.000000
  349       -4.587673     -4.587672   1.000000   1.000000
  350       -4.587673     -4.587672   1.000000   1.000000
  351       -4.587673     -4.587672   1.000000   1.000000
  352       -4.587673     -4.587672   1.000000   1.000000
  353       -4.587659     -4.587658   1.000000   1.000000
  354       -4.587659     -4.587658   1.000000   1.000000
  355       -4.564316     -4.564316   1.000000   1.000000
  356       -4.564316     -4.564316   1.000000   1.000000
  357       -4.564316     -4.564316   1.000000   1.000000
  358       -4.564316     -4.564316   1.000000   1.000000
  359       -4.564311     -4.564311   1.000000   1.000000
  360       -4.564311     -4.564311   1.000000   1.000000
  361       -4.386122     -4.386121   1.000000   1.000000
  362       -4.386122     -4.386121   1.000000   1.000000
  363       -4.386110     -4.386109   1.000000   1.000000
  364       -4.386110     -4.386109   1.000000   1.000000
  365       -4.386110     -4.386109   1.000000   1.000000
  366       -4.386110     -4.386109   1.000000   1.000000
  367       -4.308637     -4.308637   1.000000   1.000000
  368       -4.308637     -4.308637   1.000000   1.000000
  369       -4.308628     -4.308628   1.000000   1.000000
  370       -4.308628     -4.308628   1.000000   1.000000
  371       -4.308628     -4.308628   1.000000   1.000000
  372       -4.308628     -4.308628   1.000000   1.000000
  373       -4.209240     -4.209239   1.000000   1.000000
  374       -4.209240     -4.209239   1.000000   1.000000
  375       -4.209240     -4.209239   1.000000   1.000000
  376       -4.209240     -4.209239   1.000000   1.000000
  377       -4.209237     -4.209236   1.000000   1.000000
  378       -4.209237     -4.209236   1.000000   1.000000
  379       -4.157279     -4.157279   1.000000   1.000000
  380       -4.157279     -4.157279   1.000000   1.000000
  381       -4.157272     -4.157271   1.000000   1.000000
  382       -4.157272     -4.157271   1.000000   1.000000
  383       -4.157272     -4.157271   1.000000   1.000000
  384       -4.157272     -4.157271   1.000000   1.000000
  385       -4.033764     -4.033762   1.000000   1.000000
  386       -4.033764     -4.033762   1.000000   1.000000
  387       -4.033754     -4.033751   1.000000   1.000000
  388       -4.033754     -4.033751   1.000000   1.000000
  389       -4.033754     -4.033751   1.000000   1.000000
  390       -4.033754     -4.033751   1.000000   1.000000
  391       -3.977803     -3.977803   1.000000   1.000000
  392       -3.977803     -3.977803   1.000000   1.000000
  393       -3.977803     -3.977803   1.000000   1.000000
  394       -3.977803     -3.977803   1.000000   1.000000
  395       -3.977797     -3.977798   1.000000   1.000000
  396       -3.977797     -3.977798   1.000000   1.000000
  397       -3.870286     -3.870286   1.000000   1.000000
  398       -3.870286     -3.870286   1.000000   1.000000
  399       -3.870286     -3.870286   1.000000   1.000000
  400       -3.870286     -3.870286   1.000000   1.000000
  401       -3.870273     -3.870273   1.000000   1.000000
  402       -3.870273     -3.870273   1.000000   1.000000
  403       -3.755797     -3.755797   1.000000   1.000000
  404       -3.755797     -3.755797   1.000000   1.000000
  405       -3.755790     -3.755789   1.000000   1.000000
  406       -3.755790     -3.755789   1.000000   1.000000
  407       -3.755790     -3.755789   1.000000   1.000000
  408       -3.755790     -3.755789   1.000000   1.000000
  409       -3.689449     -3.689446   1.000000   1.000000
  410       -3.689449     -3.689446   1.000000   1.000000
  411       -3.689442     -3.689439   1.000000   1.000000
  412       -3.689442     -3.689439   1.000000   1.000000
  413       -3.689442     -3.689439   1.000000   1.000000
  414       -3.689442     -3.689439   1.000000   1.000000
  415       -3.624992     -3.624993   1.000000   1.000000
  416       -3.624992     -3.624993   1.000000   1.000000
  417       -3.624972     -3.624973   1.000000   1.000000
  418       -3.624972     -3.624973   1.000000   1.000000
  419       -3.624972     -3.624973   1.000000   1.000000
  420       -3.624972     -3.624973   1.000000   1.000000
  421       -3.600543     -3.600541   1.000000   1.000000
  422       -3.600543     -3.600541   1.000000   1.000000
  423       -3.600532     -3.600531   1.000000   1.000000
  424       -3.600532     -3.600531   1.000000   1.000000
  425       -3.600532     -3.600531   1.000000   1.000000
  426       -3.600532     -3.600531   1.000000   1.000000
  427       -3.461764     -3.461764   1.000000   1.000000
  428       -3.461764     -3.461764   1.000000   1.000000
  429       -3.461764     -3.461764   1.000000   1.000000
  430       -3.461764     -3.461764   1.000000   1.000000
  431       -3.461754     -3.461754   1.000000   1.000000
  432       -3.461754     -3.461754   1.000000   1.000000
  433       -3.286132     -3.286134   1.000000   1.000000
  434       -3.286132     -3.286134   1.000000   1.000000
  435       -3.286113     -3.286114   1.000000   1.000000
  436       -3.286113     -3.286114   1.000000   1.000000
  437       -3.286113     -3.286114   1.000000   1.000000
  438       -3.286113     -3.286114   1.000000   1.000000
  439       -3.165839     -3.165837   1.000000   1.000000
  440       -3.165839     -3.165837   1.000000   1.000000
  441       -3.165834     -3.165832   1.000000   1.000000
  442       -3.165834     -3.165832   1.000000   1.000000
  443       -3.165834     -3.165832   1.000000   1.000000
  444       -3.165834     -3.165832   1.000000   1.000000
  445       -3.163433     -3.163435   1.000000   1.000000
  446       -3.163430     -3.163432   1.000000   1.000000
  447       -3.043390     -3.043388   1.000000   1.000000
  448       -3.043390     -3.043388   1.000000   1.000000
  449       -3.043389     -3.043388   1.000000   1.000000
  450       -3.043389     -3.043388   1.000000   1.000000
  451       -3.043389     -3.043388   1.000000   1.000000
  452       -3.043389     -3.043388   1.000000   1.000000
  453       -3.027209     -3.027205   1.000000   1.000000
  454       -2.950364     -2.950365   1.000000   1.000000
  455       -2.950364     -2.950365   1.000000   1.000000
  456       -2.950346     -2.950347   1.000000   1.000000
  457       -2.950346     -2.950347   1.000000   1.000000
  458       -2.950346     -2.950347   1.000000   1.000000
  459       -2.950346     -2.950347   1.000000   1.000000
  460       -2.904292     -2.904290   1.000000   1.000000
  461       -2.904292     -2.904290   1.000000   1.000000
  462       -2.904292     -2.904290   1.000000   1.000000
  463       -2.904292     -2.904290   1.000000   1.000000
  464       -2.904277     -2.904276   1.000000   1.000000
  465       -2.904277     -2.904276   1.000000   1.000000
  466       -2.827086     -2.827083   1.000000   1.000000
  467       -2.827086     -2.827083   1.000000   1.000000
  468       -2.827086     -2.827083   1.000000   1.000000
  469       -2.827086     -2.827083   1.000000   1.000000
  470       -2.827073     -2.827070   1.000000   1.000000
  471       -2.827073     -2.827070   1.000000   1.000000
  472       -2.826842     -2.826845   1.000000   1.000000
  473       -2.826839     -2.826841   1.000000   1.000000
  474       -2.629504     -2.629506   1.000000   1.000000
  475       -2.629504     -2.629506   1.000000   1.000000
  476       -2.629486     -2.629487   1.000000   1.000000
  477       -2.629486     -2.629487   1.000000   1.000000
  478       -2.629486     -2.629487   1.000000   1.000000
  479       -2.629486     -2.629487   1.000000   1.000000
  480       -2.601903     -2.601902   1.000000   1.000000
  481       -2.601903     -2.601902   1.000000   1.000000
  482       -2.601901     -2.601900   1.000000   1.000000
  483       -2.601901     -2.601900   1.000000   1.000000
  484       -2.601901     -2.601900   1.000000   1.000000
  485       -2.601901     -2.601900   1.000000   1.000000
  486       -2.581379     -2.581375   1.000000   1.000000
  487       -2.528250     -2.528248   1.000000   1.000000
  488       -2.528250     -2.528248   1.000000   1.000000
  489       -2.528250     -2.528248   1.000000   1.000000
  490       -2.528250     -2.528248   1.000000   1.000000
  491       -2.528234     -2.528233   1.000000   1.000000
  492       -2.528234     -2.528233   1.000000   1.000000
  493       -2.435722     -2.435719   1.000000   1.000000
  494       -2.435722     -2.435719   1.000000   1.000000
  495       -2.435722     -2.435719   1.000000   1.000000
  496       -2.435722     -2.435719   1.000000   1.000000
  497       -2.435708     -2.435706   1.000000   1.000000
  498       -2.435708     -2.435706   1.000000   1.000000
  499       -2.227374     -2.227371   1.000000   1.000000
  500       -2.227374     -2.227371   1.000000   1.000000
  501       -2.227374     -2.227371   1.000000   1.000000
  502       -2.227374     -2.227371   1.000000   1.000000
  503       -2.227369     -2.227366   1.000000   1.000000
  504       -2.227369     -2.227366   1.000000   1.000000
  505       -2.178137     -2.178133   1.000000   1.000000
  506       -2.178137     -2.178133   1.000000   1.000000
  507       -2.178135     -2.178132   1.000000   1.000000
  508       -2.178135     -2.178132   1.000000   1.000000
  509       -2.178135     -2.178132   1.000000   1.000000
  510       -2.178135     -2.178132   1.000000   1.000000
  511       -2.141530     -2.141532   1.000000   1.000000
  512       -2.141530     -2.141532   1.000000   1.000000