<?xml version="1.0" encoding="ISO-8859-1"?>
<modeling>
 <generator>
  <i name="program" type="string">vasp </i>
  <i name="version" type="string">5.4.1  </i>
  <i name="subversion" type="string">05Feb16 (build Feb 01 2017 11:31:40) complex                          parallel </i>
  <i name="platform" type="string">IFC91_ompi </i>
  <i name="date" type="string">2025 10 21 </i>
  <i name="time" type="string">16:33:50 </i>
 </generator>
 <incar>
  <i type="string" name="SYSTEM"> MoS2 monolayer SCF-highres (SOC OFF)</i>
  <i type="int" name="ISTART">     1</i>
  <i type="string" name="PREC">accurate</i>
  <i type="string" name="ALGO"> Normal</i>
  <i type="logical" name="LSORBIT"> F  </i>
  <i type="logical" name="LNONCOLLINEAR"> F  </i>
  <i type="int" name="ISPIN">     2</i>
  <i type="int" name="ICHARG">    11</i>
  <i type="int" name="NELM">   200</i>
  <i type="int" name="IBRION">    -1</i>
  <i name="EDIFF">      0.00000010</i>
  <i type="int" name="NSW">     0</i>
  <i type="int" name="ISIF">     2</i>
  <i name="ENCUT">    600.00000000</i>
  <i type="int" name="NEDOS">  5000</i>
  <i type="logical" name="LREAL"> F  </i>
  <i type="int" name="ISMEAR">     0</i>
  <i name="SIGMA">      0.05000000</i>
  <i type="logical" name="LWAVE"> T  </i>
  <i type="logical" name="LCHARG"> T  </i>
  <v type="int" name="KPOINT_BSE">    -1     0     0     0</v>
  <i type="int" name="NELM">   200</i>
  <i type="logical" name="LDIPOL"> T  </i>
  <i type="int" name="IDIPOL">     3</i>
  <v name="DIPOL">      0.50000000      0.50000000      0.50000000</v>
 </incar>
 <kpoints>
  <generation param="Gamma">
   <v type="int" name="divisions">      24       24        1 </v>
   <v name="usershift">      0.00000000       0.00000000       0.00000000 </v>
   <v name="genvec1">      0.04166667       0.00000000       0.00000000 </v>
   <v name="genvec2">      0.00000000       0.04166667       0.00000000 </v>
   <v name="genvec3">      0.00000000       0.00000000       1.00000000 </v>
   <v name="shift">      0.00000000       0.00000000       0.00000000 </v>
  </generation>
  <varray name="kpointlist" >
   <v>       0.00000000       0.00000000       0.00000000 </v>
   <v>       0.04166667       0.00000000       0.00000000 </v>
   <v>       0.08333333       0.00000000       0.00000000 </v>
   <v>       0.12500000       0.00000000       0.00000000 </v>
   <v>       0.16666667       0.00000000       0.00000000 </v>
   <v>       0.20833333      -0.00000000       0.00000000 </v>
   <v>       0.25000000       0.00000000       0.00000000 </v>
   <v>       0.29166667       0.00000000       0.00000000 </v>
   <v>       0.33333333       0.00000000       0.00000000 </v>
   <v>       0.37500000       0.00000000       0.00000000 </v>
   <v>       0.41666667      -0.00000000       0.00000000 </v>
   <v>       0.45833333       0.00000000       0.00000000 </v>
   <v>       0.50000000       0.00000000       0.00000000 </v>
   <v>       0.04166667       0.04166667       0.00000000 </v>
   <v>       0.08333333       0.04166667       0.00000000 </v>
   <v>       0.12500000       0.04166667       0.00000000 </v>
   <v>       0.16666667       0.04166667       0.00000000 </v>
   <v>       0.20833333       0.04166667       0.00000000 </v>
   <v>       0.25000000       0.04166667       0.00000000 </v>
   <v>       0.29166667       0.04166667       0.00000000 </v>
   <v>       0.33333333       0.04166667       0.00000000 </v>
   <v>       0.37500000       0.04166667       0.00000000 </v>
   <v>       0.41666667       0.04166667       0.00000000 </v>
   <v>       0.45833333       0.04166667       0.00000000 </v>
   <v>       0.08333333       0.08333333       0.00000000 </v>
   <v>       0.12500000       0.08333333       0.00000000 </v>
   <v>       0.16666667       0.08333333       0.00000000 </v>
   <v>       0.20833333       0.08333333       0.00000000 </v>
   <v>       0.25000000       0.08333333       0.00000000 </v>
   <v>       0.29166667       0.08333333       0.00000000 </v>
   <v>       0.33333333       0.08333333       0.00000000 </v>
   <v>       0.37500000       0.08333333       0.00000000 </v>
   <v>       0.41666667       0.08333333       0.00000000 </v>
   <v>       0.45833333       0.08333333       0.00000000 </v>
   <v>       0.12500000       0.12500000       0.00000000 </v>
   <v>       0.16666667       0.12500000       0.00000000 </v>
   <v>       0.20833333       0.12500000       0.00000000 </v>
   <v>       0.25000000       0.12500000       0.00000000 </v>
   <v>       0.29166667       0.12500000       0.00000000 </v>
   <v>       0.33333333       0.12500000       0.00000000 </v>
   <v>       0.37500000       0.12500000       0.00000000 </v>
   <v>       0.41666667       0.12500000       0.00000000 </v>
   <v>       0.16666667       0.16666667       0.00000000 </v>
   <v>       0.20833333       0.16666667       0.00000000 </v>
   <v>       0.25000000       0.16666667       0.00000000 </v>
   <v>       0.29166667       0.16666667       0.00000000 </v>
   <v>       0.33333333       0.16666667       0.00000000 </v>
   <v>       0.37500000       0.16666667       0.00000000 </v>
   <v>       0.41666667       0.16666667       0.00000000 </v>
   <v>       0.20833333       0.20833333       0.00000000 </v>
   <v>       0.25000000       0.20833333       0.00000000 </v>
   <v>       0.29166667       0.20833333       0.00000000 </v>
   <v>       0.33333333       0.20833333       0.00000000 </v>
   <v>       0.37500000       0.20833333       0.00000000 </v>
   <v>       0.25000000       0.25000000       0.00000000 </v>
   <v>       0.29166667       0.25000000       0.00000000 </v>
   <v>       0.33333333       0.25000000       0.00000000 </v>
   <v>       0.37500000       0.25000000       0.00000000 </v>
   <v>       0.29166667       0.29166667       0.00000000 </v>
   <v>       0.33333333       0.29166667       0.00000000 </v>
   <v>       0.33333333       0.33333333       0.00000000 </v>
  </varray>
  <varray name="weights" >
   <v>       0.00173611 </v>
   <v>       0.01041667 </v>
   <v>       0.01041667 </v>
   <v>       0.01041667 </v>
   <v>       0.01041667 </v>
   <v>       0.01041667 </v>
   <v>       0.01041667 </v>
   <v>       0.01041667 </v>
   <v>       0.01041667 </v>
   <v>       0.01041667 </v>
   <v>       0.01041667 </v>
   <v>       0.01041667 </v>
   <v>       0.00520833 </v>
   <v>       0.01041667 </v>
   <v>       0.02083333 </v>
   <v>       0.02083333 </v>
   <v>       0.02083333 </v>
   <v>       0.02083333 </v>
   <v>       0.02083333 </v>
   <v>       0.02083333 </v>
   <v>       0.02083333 </v>
   <v>       0.02083333 </v>
   <v>       0.02083333 </v>
   <v>       0.02083333 </v>
   <v>       0.01041667 </v>
   <v>       0.02083333 </v>
   <v>       0.02083333 </v>
   <v>       0.02083333 </v>
   <v>       0.02083333 </v>
   <v>       0.02083333 </v>
   <v>       0.02083333 </v>
   <v>       0.02083333 </v>
   <v>       0.02083333 </v>
   <v>       0.01041667 </v>
   <v>       0.01041667 </v>
   <v>       0.02083333 </v>
   <v>       0.02083333 </v>
   <v>       0.02083333 </v>
   <v>       0.02083333 </v>
   <v>       0.02083333 </v>
   <v>       0.02083333 </v>
   <v>       0.02083333 </v>
   <v>       0.01041667 </v>
   <v>       0.02083333 </v>
   <v>       0.02083333 </v>
   <v>       0.02083333 </v>
   <v>       0.02083333 </v>
   <v>       0.02083333 </v>
   <v>       0.01041667 </v>
   <v>       0.01041667 </v>
   <v>       0.02083333 </v>
   <v>       0.02083333 </v>
   <v>       0.02083333 </v>
   <v>       0.02083333 </v>
   <v>       0.01041667 </v>
   <v>       0.02083333 </v>
   <v>       0.02083333 </v>
   <v>       0.01041667 </v>
   <v>       0.01041667 </v>
   <v>       0.02083333 </v>
   <v>       0.00347222 </v>
  </varray>
 </kpoints>
 <parameters>
  <separator name="general" >
   <i type="string" name="SYSTEM">MoS2 monolayer SCF-highres (SOC OFF)</i>
   <i type="logical" name="LCOMPAT"> F  </i>
  </separator>
  <separator name="electronic" >
   <i type="string" name="PREC">accura</i>
   <i name="ENMAX">    600.00000000</i>
   <i name="ENAUG">    392.42700000</i>
   <i name="EDIFF">      0.00000010</i>
   <i type="int" name="IALGO">    38</i>
   <i type="int" name="IWAVPR">    10</i>
   <i type="int" name="NBANDS">    24</i>
   <i name="NELECT">     24.00000000</i>
   <i type="int" name="TURBO">     0</i>
   <i type="int" name="IRESTART">     0</i>
   <i type="int" name="NREBOOT">     0</i>
   <i type="int" name="NMIN">     0</i>
   <i name="EREF">      0.00000000</i>
   <separator name="electronic smearing" >
    <i type="int" name="ISMEAR">     0</i>
    <i name="SIGMA">      0.05000000</i>
    <i name="KSPACING">      0.50000000</i>
    <i type="logical" name="KGAMMA"> T  </i>
   </separator>
   <separator name="electronic projectors" >
    <i type="logical" name="LREAL"> F  </i>
    <v name="ROPT">      0.00000000      0.00000000</v>
    <i type="int" name="LMAXPAW">  -100</i>
    <i type="int" name="LMAXMIX">     2</i>
    <i type="logical" name="NLSPLINE"> F  </i>
   </separator>
   <separator name="electronic startup" >
    <i type="int" name="ISTART">     1</i>
    <i type="int" name="ICHARG">    11</i>
    <i type="int" name="INIWAV">     1</i>
   </separator>
   <separator name="electronic spin" >
    <i type="int" name="ISPIN">     2</i>
    <i type="logical" name="LNONCOLLINEAR"> F  </i>
    <v name="MAGMOM">      1.00000000      1.00000000      1.00000000</v>
    <i name="NUPDOWN">     -1.00000000</i>
    <i type="logical" name="LSORBIT"> F  </i>
    <v name="SAXIS">      0.00000000      0.00000000      1.00000000</v>
    <i type="logical" name="LSPIRAL"> F  </i>
    <v name="QSPIRAL">      0.00000000      0.00000000      0.00000000</v>
    <i type="logical" name="LZEROZ"> F  </i>
   </separator>
   <separator name="electronic exchange-correlation" >
    <i type="logical" name="LASPH"> F  </i>
    <i type="logical" name="LMETAGGA"> F  </i>
   </separator>
   <separator name="electronic convergence" >
    <i type="int" name="NELM">   200</i>
    <i type="int" name="NELMDL">     0</i>
    <i type="int" name="NELMIN">     2</i>
    <i name="ENINI">    600.00000000</i>
    <separator name="electronic convergence detail" >
     <i type="logical" name="LDIAG"> T  </i>
     <i type="logical" name="LSUBROT"> F  </i>
     <i name="WEIMIN">      0.00000000</i>
     <i name="EBREAK">      0.00000000</i>
     <i name="DEPER">      0.30000000</i>
     <i type="int" name="NRMM">     4</i>
     <i name="TIME">      0.40000000</i>
    </separator>
   </separator>
   <separator name="electronic mixer" >
    <i name="AMIX">      0.40000000</i>
    <i name="BMIX">      1.00000000</i>
    <i name="AMIN">      0.10000000</i>
    <i name="AMIX_MAG">      1.60000000</i>
    <i name="BMIX_MAG">      1.00000000</i>
    <separator name="electronic mixer details" >
     <i type="int" name="IMIX">     4</i>
     <i type="logical" name="MIXFIRST"> F  </i>
     <i type="int" name="MAXMIX">   -45</i>
     <i name="WC">    100.00000000</i>
     <i type="int" name="INIMIX">     1</i>
     <i type="int" name="MIXPRE">     1</i>
     <i type="int" name="MREMOVE">     5</i>
    </separator>
   </separator>
   <separator name="electronic dipolcorrection" >
    <i type="logical" name="LDIPOL"> T  </i>
    <i type="logical" name="LMONO"> F  </i>
    <i type="int" name="IDIPOL">     3</i>
    <i name="EPSILON">      1.00000000</i>
    <v name="DIPOL">      0.50000000      0.50000000      0.50000000</v>
    <i name="EFIELD">      0.00000000</i>
   </separator>
  </separator>
  <separator name="grids" >
   <i type="int" name="NGX">    28</i>
   <i type="int" name="NGY">    28</i>
   <i type="int" name="NGZ">   280</i>
   <i type="int" name="NGXF">    56</i>
   <i type="int" name="NGYF">    56</i>
   <i type="int" name="NGZF">   560</i>
   <i type="logical" name="ADDGRID"> F  </i>
  </separator>
  <separator name="ionic" >
   <i type="int" name="NSW">     0</i>
   <i type="int" name="IBRION">    -1</i>
   <i type="int" name="ISIF">     2</i>
   <i name="PSTRESS">      0.00000000</i>
   <i name="EDIFFG">      0.00000100</i>
   <i type="int" name="NFREE">     0</i>
   <i name="POTIM">      0.50000000</i>
   <i name="SMASS">     -3.00000000</i>
   <i name="SCALEE">      1.00000000</i>
  </separator>
  <separator name="ionic md" >
   <i name="TEBEG">      0.00010000</i>
   <i name="TEEND">      0.00010000</i>
   <i type="int" name="NBLOCK">     1</i>
   <i type="int" name="KBLOCK">     1</i>
   <i type="int" name="NPACO">   256</i>
   <i name="APACO">     16.00000000</i>
  </separator>
  <separator name="symmetry" >
   <i type="int" name="ISYM">     2</i>
   <i name="SYMPREC">      0.00001000</i>
  </separator>
  <separator name="dos" >
   <i type="logical" name="LORBIT"> F  </i>
   <v name="RWIGS">     -1.00000000     -1.00000000</v>
   <i type="int" name="NEDOS">  5000</i>
   <i name="EMIN">     10.00000000</i>
   <i name="EMAX">    -10.00000000</i>
   <i name="EFERMI">      0.00000000</i>
  </separator>
  <separator name="writing" >
   <i type="int" name="NWRITE">     2</i>
   <i type="logical" name="LWAVE"> T  </i>
   <i type="logical" name="LCHARG"> T  </i>
   <i type="logical" name="LPARD"> F  </i>
   <i type="logical" name="LVTOT"> F  </i>
   <i type="logical" name="LVHAR"> F  </i>
   <i type="logical" name="LELF"> F  </i>
   <i type="logical" name="LOPTICS"> F  </i>
   <v name="STM">      0.00000000      0.00000000      0.00000000      0.00000000      0.00000000      0.00000000      0.00000000</v>
  </separator>
  <separator name="performance" >
   <i type="int" name="NPAR">     8</i>
   <i type="int" name="NSIM">     4</i>
   <i type="int" name="NBLK">    -1</i>
   <i type="logical" name="LPLANE"> T  </i>
   <i type="logical" name="LSCALAPACK"> T  </i>
   <i type="logical" name="LSCAAWARE"> F  </i>
   <i type="logical" name="LSCALU"> F  </i>
   <i type="logical" name="LASYNC"> F  </i>
   <i type="logical" name="LORBITALREAL"> F  </i>
  </separator>
  <separator name="miscellaneous" >
   <i type="int" name="IDIOT">     3</i>
   <i type="logical" name="LMUSIC"> F  </i>
   <v name="POMASS">     95.94000000     32.06600000</v>
   <v name="DARWINR">      0.00000000      0.00000000</v>
   <v name="DARWINV">      1.00000000      1.00000000</v>
   <i type="logical" name="LCORR"> T  </i>
  </separator>
  <i type="logical" name="GGA_COMPAT"> T  </i>
  <i type="logical" name="LBERRY"> F  </i>
  <i type="int" name="ICORELEVEL">     0</i>
  <i type="logical" name="LDAU"> F  </i>
  <i type="int" name="I_CONSTRAINED_M">     0</i>
  <separator name="electronic exchange-correlation" >
   <i type="string" name="GGA">--</i>
   <i type="int" name="VOSKOWN">     0</i>
   <i type="logical" name="LHFCALC"> F  </i>
   <i type="string" name="PRECFOCK"></i>
   <i type="logical" name="LSYMGRAD"> F  </i>
   <i type="logical" name="LHFONE"> F  </i>
   <i type="logical" name="LRHFCALC"> F  </i>
   <i type="logical" name="LTHOMAS"> F  </i>
   <i type="logical" name="LMODELHF"> F  </i>
   <i name="ENCUT4O">     -1.00000000</i>
   <i type="int" name="EXXOEP">     0</i>
   <i type="int" name="FOURORBIT">     0</i>
   <i name="AEXX">      0.00000000</i>
   <i name="HFALPHA">      0.00000000</i>
   <i name="MCALPHA">      0.00000000</i>
   <i name="ALDAX">      1.00000000</i>
   <i name="AGGAX">      1.00000000</i>
   <i name="ALDAC">      1.00000000</i>
   <i name="AGGAC">      1.00000000</i>
   <i type="int" name="NKREDX">     1</i>
   <i type="int" name="NKREDY">     1</i>
   <i type="int" name="NKREDZ">     1</i>
   <i type="logical" name="SHIFTRED"> F  </i>
   <i type="logical" name="ODDONLY"> F  </i>
   <i type="logical" name="EVENONLY"> F  </i>
   <i type="int" name="LMAXFOCK">     0</i>
   <i type="int" name="NMAXFOCKAE">     0</i>
   <i type="logical" name="LFOCKAEDFT"> F  </i>
   <i name="HFSCREEN">      0.00000000</i>
   <i name="HFSCREENC">      0.00000000</i>
   <i type="int" name="NBANDSGWLOW">     0</i>
  </separator>
  <separator name="vdW DFT" >
   <i type="logical" name="LUSE_VDW"> F  </i>
   <i name="Zab_VDW">     -0.84910000</i>
   <i name="PARAM1">      0.12340000</i>
   <i name="PARAM2">      1.00000000</i>
   <i name="PARAM3">      0.00000000</i>
  </separator>
  <separator name="model GW" >
   <i type="int" name="MODEL_GW">     0</i>
   <i name="MODEL_EPS0">     61.86883188</i>
   <i name="MODEL_ALPHA">      1.00000000</i>
  </separator>
  <separator name="linear response parameters" >
   <i type="logical" name="LEPSILON"> F  </i>
   <i type="logical" name="LRPA"> F  </i>
   <i type="logical" name="LNABLA"> F  </i>
   <i type="logical" name="LVEL"> F  </i>
   <i type="int" name="KINTER">     0</i>
   <i name="CSHIFT">      0.10000000</i>
   <i name="OMEGAMAX">     -1.00000000</i>
   <i name="DEG_THRESHOLD">      0.00200000</i>
  </separator>
  <separator name="orbital magnetization" >
   <i type="logical" name="NUCIND"> F  </i>
   <v name="MAGPOS">      0.00000000      0.00000000      0.00000000</v>
   <i type="logical" name="LNICSALL"> T  </i>
   <i type="logical" name="ORBITALMAG"> F  </i>
   <i type="logical" name="LMAGBLOCH"> F  </i>
   <i type="logical" name="LCHIMAG"> F  </i>
   <i type="logical" name="LGAUGE"> T  </i>
   <i type="int" name="MAGATOM">     0</i>
   <v name="MAGDIPOL">      0.00000000      0.00000000      0.00000000</v>
   <v name="AVECCONST">      0.00000000      0.00000000      0.00000000</v>
  </separator>
  <separator name="response functions" >
   <i type="logical" name="LADDER"> F  </i>
   <i type="logical" name="LFXC"> F  </i>
   <i type="logical" name="LHARTREE"> T  </i>
   <i type="int" name="IBSE">     0</i>
   <v type="int" name="KPOINT">    -1     0     0     0</v>
   <i type="logical" name="LTCTE"> F  </i>
   <i type="logical" name="LTETE"> F  </i>
   <i type="logical" name="LTRIPLET"> F  </i>
   <i type="logical" name="LFXCEPS"> F  </i>
   <i type="logical" name="LFXHEG"> F  </i>
   <i type="int" name="NATURALO">     0</i>
   <i type="logical" name="L2ORDER"> F  </i>
   <i type="logical" name="LUSEW"> F  </i>
   <i name="ENCUTGW">     -2.00000000</i>
   <i name="ENCUTGWSOFT">     -2.00000000</i>
   <i name="ENCUTLF">     -1.00000000</i>
   <i type="int" name="LMAXMP2">    -1</i>
   <i name="SCISSOR">      0.00000000</i>
   <i type="int" name="NOMEGA">     0</i>
   <i type="int" name="NOMEGAR">     0</i>
   <i type="int" name="NBANDSGW">    -1</i>
   <i type="int" name="NBANDSO">    -1</i>
   <i type="int" name="NBANDSV">    -1</i>
   <i type="int" name="NELM">   200</i>
   <i type="int" name="NELMHF">     1</i>
   <i type="int" name="DIM">     3</i>
   <i type="int" name="ANTIRES">     0</i>
   <i name="OMEGAMAX">    -30.00000000</i>
   <i name="OMEGAMIN">    -30.00000000</i>
   <i name="OMEGATL">   -200.00000000</i>
   <i type="int" name="OMEGAGRID">     0</i>
   <i name="CSHIFT">     -0.10000000</i>
   <i type="logical" name="SELFENERGY"> F  </i>
   <i type="logical" name="LSPECTRAL"> F  </i>
   <i type="logical" name="LSPECTRALGW"> F  </i>
   <i type="logical" name="LSINGLES"> F  </i>
   <i type="logical" name="LFERMIGW"> F  </i>
   <i type="logical" name="ODDONLYGW"> F  </i>
   <i type="logical" name="EVENONLYGW"> F  </i>
   <i type="int" name="NKREDLFX">     1</i>
   <i type="int" name="NKREDLFY">     1</i>
   <i type="int" name="NKREDLFZ">     1</i>
   <i type="int" name="MAXMEM">  1800</i>
   <i type="int" name="TELESCOPE">     0</i>
   <i type="int" name="TAUPAR">     1</i>
   <i type="int" name="OMEGAPAR">    -1</i>
   <i name="LAMBDA">      1.00000000</i>
  </separator>
  <separator name="External order field" >
   <i name="OFIELD_KAPPA">      0.00000000</i>
   <v name="OFIELD_K">      0.00000000      0.00000000      0.00000000</v>
   <i name="OFIELD_Q6_NEAR">      0.00000000</i>
   <i name="OFIELD_Q6_FAR">      0.00000000</i>
   <i name="OFIELD_A">      0.00000000</i>
  </separator>
  <separator name="solvation model" >
   <i type="logical" name="LSOL"> F  </i>
  </separator>
 </parameters>
 <atominfo>
  <atoms>       3 </atoms>
  <types>       2 </types>
  <array name="atoms" >
   <dimension dim="1">ion</dimension>
   <field type="string">element</field>
   <field type="int">atomtype</field>
   <set>
    <rc><c>Mo</c><c>   1</c></rc>
    <rc><c>S </c><c>   2</c></rc>
    <rc><c>S </c><c>   2</c></rc>
   </set>
  </array>
  <array name="atomtypes" >
   <dimension dim="1">type</dimension>
   <field type="int">atomspertype</field>
   <field type="string">element</field>
   <field>mass</field>
   <field>valence</field>
   <field type="string">pseudopotential</field>
   <set>
    <rc><c>   1</c><c>Mo</c><c>     95.94000000</c><c>     12.00000000</c><c> PAW_PBE Mo_pv 08Apr2002                </c></rc>
    <rc><c>   2</c><c>S </c><c>     32.06600000</c><c>      6.00000000</c><c>  PAW_PBE S 17Jan2003                   </c></rc>
   </set>
  </array>
 </atominfo>
 <structure name="initialpos" >
  <crystal>
   <varray name="basis" >
    <v>       1.59817141      -2.76811338       0.00000000 </v>
    <v>       1.59817141       2.76811338       0.00000000 </v>
    <v>       0.00000000       0.00000000      34.96267827 </v>
   </varray>
   <i name="volume">    309.34415938 </i>
   <varray name="rec_basis" >
    <v>       0.31285756      -0.18062844       0.00000000 </v>
    <v>       0.31285756       0.18062844       0.00000000 </v>
    <v>       0.00000000       0.00000000       0.02860193 </v>
   </varray>
  </crystal>
  <varray name="positions" >
   <v>       0.66666700       0.33333300       0.10664700 </v>
   <v>       0.33333300       0.66666700       0.06198962 </v>
   <v>       0.33333300       0.66666700       0.15130538 </v>
  </varray>
 </structure>
 <calculation>
  <scstep>
   <time name="dav">   16.76   17.07</time>
   <time name="total">   17.12   17.43</time>
   <dipole>
    <v name="dipole">      0.00000000       0.00000000       0.25119727 </v>
    <i name="Tr[quadrupol]">    -54.53891571 </i>
    <i name="Echarged">      0.00000000 </i>
    <i name="Edipol_quadrupol">      0.00000000 </i>
    <i name="Eion">      0.00000000 </i>
   </dipole>
   <energy>
    <i name="alphaZ">     65.64988328 </i>
    <i name="ewald">  11816.21891409 </i>
    <i name="hartreedc"> -13384.32555474 </i>
    <i name="XCdc">     61.92012840 </i>
    <i name="pawpsdc">   1166.43637451 </i>
    <i name="pawaedc">  -1145.31521571 </i>
    <i name="eentropy">     -0.00000000 </i>
    <i name="bandstr">   -440.23628857 </i>
    <i name="atom">   1837.94417650 </i>
    <i name="e_fr_energy">    -21.70758223 </i>
    <i name="e_wo_entrp">    -21.70758223 </i>
    <i name="e_0_energy">    -21.70758223 </i>
   </energy>
  </scstep>
  <scstep>
   <time name="dav">   15.77   15.79</time>
   <time name="total">   15.78   15.79</time>
   <dipole>
    <v name="dipole">      0.00000000       0.00000000       0.25119727 </v>
    <i name="Tr[quadrupol]">    -54.53891571 </i>
    <i name="Echarged">      0.00000000 </i>
    <i name="Edipol_quadrupol">      0.00000000 </i>
    <i name="Eion">      0.00000000 </i>
   </dipole>
   <energy>
    <i name="e_fr_energy">    -21.70758256 </i>
    <i name="e_wo_entrp">    -21.70758256 </i>
    <i name="e_0_energy">    -21.70758256 </i>
   </energy>
  </scstep>
  <scstep>
   <time name="dav">   13.87   13.87</time>
   <time name="total">   13.87   13.88</time>
   <dipole>
    <v name="dipole">      0.00000000       0.00000000       0.25119727 </v>
    <i name="Tr[quadrupol]">    -54.53891571 </i>
    <i name="Echarged">      0.00000000 </i>
    <i name="Edipol_quadrupol">      0.00000000 </i>
    <i name="Eion">      0.00000000 </i>
   </dipole>
   <energy>
    <i name="alphaZ">     65.64988328 </i>
    <i name="ewald">  11816.21891409 </i>
    <i name="hartreedc"> -13384.32555474 </i>
    <i name="XCdc">     61.92012840 </i>
    <i name="pawpsdc">   1166.43637451 </i>
    <i name="pawaedc">  -1145.31521571 </i>
    <i name="eentropy">     -0.00000000 </i>
    <i name="bandstr">   -440.23628890 </i>
    <i name="atom">   1837.94417650 </i>
    <i name="e_fr_energy">    -21.70758256 </i>
    <i name="e_wo_entrp">    -21.70758256 </i>
    <i name="e_0_energy">    -21.70758256 </i>
   </energy>
  </scstep>
  <structure>
   <crystal>
    <varray name="basis" >
     <v>       1.59817141      -2.76811338       0.00000000 </v>
     <v>       1.59817141       2.76811338       0.00000000 </v>
     <v>       0.00000000       0.00000000      34.96267827 </v>
    </varray>
    <i name="volume">    309.34415938 </i>
    <varray name="rec_basis" >
     <v>       0.31285756      -0.18062844       0.00000000 </v>
     <v>       0.31285756       0.18062844       0.00000000 </v>
     <v>       0.00000000       0.00000000       0.02860193 </v>
    </varray>
   </crystal>
   <varray name="positions" >
    <v>       0.66666700       0.33333300       0.10664700 </v>
    <v>       0.33333300       0.66666700       0.06198962 </v>
    <v>       0.33333300       0.66666700       0.15130538 </v>
   </varray>
  </structure>
  <varray name="forces" >
   <v>       0.00000000       0.00000000       0.00000000 </v>
   <v>       0.00000000       0.00000000       0.00326701 </v>
   <v>      -0.00000000      -0.00000000      -0.00326701 </v>
  </varray>
  <varray name="stress" >
   <v>      -0.57833409       0.00000000       0.00000000 </v>
   <v>       0.00000000      -0.57833379       0.00000000 </v>
   <v>       0.00000000       0.00000000       2.08031078 </v>
  </varray>
  <energy>
   <i name="e_fr_energy">    -21.70758256 </i>
   <i name="e_wo_entrp">    -21.70758256 </i>
   <i name="e_0_energy">     -0.00000000 </i>
  </energy>
  <time name="totalsc">   59.77   60.16</time>
  <eigenvalues>
   <array>
    <dimension dim="1">band</dimension>
    <dimension dim="2">kpoint</dimension>
    <dimension dim="3">spin</dimension>
    <field>eigene</field>
    <field>occ</field>
    <set>
     <set comment="spin 1">
      <set comment="kpoint 1">
       <r>  -40.8931    1.0000 </r>
       <r>  -40.7074    1.0000 </r>
       <r>  -40.7074    1.0000 </r>
       <r>  -19.9230    1.0000 </r>
       <r>  -18.5559    1.0000 </r>
       <r>  -11.4176    1.0000 </r>
       <r>   -8.4694    1.0000 </r>
       <r>   -8.4694    1.0000 </r>
       <r>   -7.5554    1.0000 </r>
       <r>   -7.3497    1.0000 </r>
       <r>   -7.3497    1.0000 </r>
       <r>   -5.7987    1.0000 </r>
       <r>   -3.1554    0.0000 </r>
       <r>   -3.1554    0.0000 </r>
       <r>   -2.8088    0.0000 </r>
       <r>   -2.8088    0.0000 </r>
       <r>    0.1263    0.0000 </r>
       <r>    0.6157    0.0000 </r>
       <r>    1.7245    0.0000 </r>
       <r>    2.0435    0.0000 </r>
       <r>    2.4260    0.0000 </r>
       <r>    3.0032    0.0000 </r>
       <r>    3.1894    0.0000 </r>
       <r>    3.5316    0.0000 </r>
      </set>
      <set comment="kpoint 2">
       <r>  -40.8919    1.0000 </r>
       <r>  -40.7136    1.0000 </r>
       <r>  -40.7088    1.0000 </r>
       <r>  -19.8979    1.0000 </r>
       <r>  -18.5451    1.0000 </r>
       <r>  -11.3882    1.0000 </r>
       <r>   -8.5286    1.0000 </r>
       <r>   -8.4432    1.0000 </r>
       <r>   -7.7611    1.0000 </r>
       <r>   -7.3914    1.0000 </r>
       <r>   -7.1815    1.0000 </r>
       <r>   -5.8109    1.0000 </r>
       <r>   -3.1988    0.0000 </r>
       <r>   -3.1233    0.0000 </r>
       <r>   -2.8794    0.0000 </r>
       <r>   -2.8244    0.0000 </r>
       <r>    0.2073    0.0000 </r>
       <r>    0.6953    0.0000 </r>
       <r>    1.7593    0.0000 </r>
       <r>    2.0765    0.0000 </r>
       <r>    2.4596    0.0000 </r>
       <r>    3.0368    0.0000 </r>
       <r>    3.3151    0.0000 </r>
       <r>    3.5648    0.0000 </r>
      </set>
      <set comment="kpoint 3">
       <r>  -40.8884    1.0000 </r>
       <r>  -40.7316    1.0000 </r>
       <r>  -40.7129    1.0000 </r>
       <r>  -19.8234    1.0000 </r>
       <r>  -18.5130    1.0000 </r>
       <r>  -11.3030    1.0000 </r>
       <r>   -8.6950    1.0000 </r>
       <r>   -8.3665    1.0000 </r>
       <r>   -8.0617    1.0000 </r>
       <r>   -7.5075    1.0000 </r>
       <r>   -7.0015    1.0000 </r>
       <r>   -5.8535    1.0000 </r>
       <r>   -3.3019    0.0000 </r>
       <r>   -3.0780    0.0000 </r>
       <r>   -3.0509    0.0000 </r>
       <r>   -2.8243    0.0000 </r>
       <r>    0.3900    0.0000 </r>
       <r>    0.9557    0.0000 </r>
       <r>    1.8640    0.0000 </r>
       <r>    2.1740    0.0000 </r>
       <r>    2.5600    0.0000 </r>
       <r>    3.1370    0.0000 </r>
       <r>    3.6548    0.0000 </r>
       <r>    3.6656    0.0000 </r>
      </set>
      <set comment="kpoint 4">
       <r>  -40.8828    1.0000 </r>
       <r>  -40.7603    1.0000 </r>
       <r>  -40.7195    1.0000 </r>
       <r>  -19.7027    1.0000 </r>
       <r>  -18.4610    1.0000 </r>
       <r>  -11.1717    1.0000 </r>
       <r>   -8.9382    1.0000 </r>
       <r>   -8.3778    1.0000 </r>
       <r>   -8.2461    1.0000 </r>
       <r>   -7.6748    1.0000 </r>
       <r>   -6.9074    1.0000 </r>
       <r>   -5.9420    1.0000 </r>
       <r>   -3.4223    0.0000 </r>
       <r>   -3.2181    0.0000 </r>
       <r>   -3.1362    0.0000 </r>
       <r>   -2.7020    0.0000 </r>
       <r>    0.5996    0.0000 </r>
       <r>    1.3750    0.0000 </r>
       <r>    2.0402    0.0000 </r>
       <r>    2.3392    0.0000 </r>
       <r>    2.7265    0.0000 </r>
       <r>    3.3026    0.0000 </r>
       <r>    3.8257    0.0000 </r>
       <r>    4.0940    0.0000 </r>
      </set>
      <set comment="kpoint 5">
       <r>  -40.8755    1.0000 </r>
       <r>  -40.7974    1.0000 </r>
       <r>  -40.7280    1.0000 </r>
       <r>  -19.5410    1.0000 </r>
       <r>  -18.3908    1.0000 </r>
       <r>  -11.0148    1.0000 </r>
       <r>   -9.2176    1.0000 </r>
       <r>   -8.6993    1.0000 </r>
       <r>   -8.1099    1.0000 </r>
       <r>   -7.8485    1.0000 </r>
       <r>   -6.9170    1.0000 </r>
       <r>   -6.0921    1.0000 </r>
       <r>   -3.5544    0.0000 </r>
       <r>   -3.2601    0.0000 </r>
       <r>   -3.2518    0.0000 </r>
       <r>   -2.5055    0.0000 </r>
       <r>    0.8322    0.0000 </r>
       <r>    1.8087    0.0000 </r>
       <r>    2.2865    0.0000 </r>
       <r>    2.6046    0.0000 </r>
       <r>    2.9598    0.0000 </r>
       <r>    3.5311    0.0000 </r>
       <r>    4.0084    0.0000 </r>
       <r>    4.1116    0.0000 </r>
      </set>
      <set comment="kpoint 6">
       <r>  -40.8671    1.0000 </r>
       <r>  -40.8403    1.0000 </r>
       <r>  -40.7378    1.0000 </r>
       <r>  -19.3457    1.0000 </r>
       <r>  -18.3054    1.0000 </r>
       <r>  -10.8714    1.0000 </r>
       <r>   -9.4850    1.0000 </r>
       <r>   -9.0202    1.0000 </r>
       <r>   -8.1535    1.0000 </r>
       <r>   -7.8224    1.0000 </r>
       <r>   -7.0139    1.0000 </r>
       <r>   -6.2987    1.0000 </r>
       <r>   -3.6448    0.0000 </r>
       <r>   -3.3955    0.0000 </r>
       <r>   -3.1432    0.0000 </r>
       <r>   -2.2955    0.0000 </r>
       <r>    1.0931    0.0000 </r>
       <r>    2.1095    0.0000 </r>
       <r>    2.5741    0.0000 </r>
       <r>    2.9484    0.0000 </r>
       <r>    3.2660    0.0000 </r>
       <r>    3.7655    0.0000 </r>
       <r>    3.8487    0.0000 </r>
       <r>    4.0721    0.0000 </r>
      </set>
      <set comment="kpoint 7">
       <r>  -40.8859    1.0000 </r>
       <r>  -40.8579    1.0000 </r>
       <r>  -40.7484    1.0000 </r>
       <r>  -19.1268    1.0000 </r>
       <r>  -18.2085    1.0000 </r>
       <r>  -10.8077    1.0000 </r>
       <r>   -9.6850    1.0000 </r>
       <r>   -9.3289    1.0000 </r>
       <r>   -8.3428    1.0000 </r>
       <r>   -7.6277    1.0000 </r>
       <r>   -7.1582    1.0000 </r>
       <r>   -6.5224    1.0000 </r>
       <r>   -3.6592    0.0000 </r>
       <r>   -3.5175    0.0000 </r>
       <r>   -2.9424    0.0000 </r>
       <r>   -2.0995    0.0000 </r>
       <r>    1.3715    0.0000 </r>
       <r>    2.2804    0.0000 </r>
       <r>    2.8510    0.0000 </r>
       <r>    3.0320    0.0000 </r>
       <r>    3.4769    0.0000 </r>
       <r>    3.7216    0.0000 </r>
       <r>    3.9205    0.0000 </r>
       <r>    4.2273    0.0000 </r>
      </set>
      <set comment="kpoint 8">
       <r>  -40.9313    1.0000 </r>
       <r>  -40.8488    1.0000 </r>
       <r>  -40.7590    1.0000 </r>
       <r>  -18.8969    1.0000 </r>
       <r>  -18.1049    1.0000 </r>
       <r>  -10.8799    1.0000 </r>
       <r>   -9.8149    1.0000 </r>
       <r>   -9.5828    1.0000 </r>
       <r>   -8.5301    1.0000 </r>
       <r>   -7.4164    1.0000 </r>
       <r>   -7.3107    1.0000 </r>
       <r>   -6.7000    1.0000 </r>
       <r>   -3.6108    0.0000 </r>
       <r>   -3.6078    0.0000 </r>
       <r>   -2.6972    0.0000 </r>
       <r>   -1.9316    0.0000 </r>
       <r>    1.6363    0.0000 </r>
       <r>    2.3425    0.0000 </r>
       <r>    2.5980    0.0000 </r>
       <r>    3.0900    0.0000 </r>
       <r>    3.4789    0.0000 </r>
       <r>    4.0299    0.0000 </r>
       <r>    4.1935    0.0000 </r>
       <r>    4.6489    0.0000 </r>
      </set>
      <set comment="kpoint 9">
       <r>  -40.9732    1.0000 </r>
       <r>  -40.8403    1.0000 </r>
       <r>  -40.7688    1.0000 </r>
       <r>  -18.6719    1.0000 </r>
       <r>  -18.0002    1.0000 </r>
       <r>  -11.0540    1.0000 </r>
       <r>  -10.0091    1.0000 </r>
       <r>   -9.6896    1.0000 </r>
       <r>   -8.6947    1.0000 </r>
       <r>   -7.4468    1.0000 </r>
       <r>   -7.2183    1.0000 </r>
       <r>   -6.7746    1.0000 </r>
       <r>   -3.6674    0.0000 </r>
       <r>   -3.5126    0.0000 </r>
       <r>   -2.4503    0.0000 </r>
       <r>   -1.7978    0.0000 </r>
       <r>    1.7797    0.0000 </r>
       <r>    2.0679    0.0000 </r>
       <r>    2.3846    0.0000 </r>
       <r>    3.0845    0.0000 </r>
       <r>    3.8509    0.0000 </r>
       <r>    4.2864    0.0000 </r>
       <r>    4.5896    0.0000 </r>
       <r>    5.0921    0.0000 </r>
      </set>
      <set comment="kpoint 10">
       <r>  -41.0089    1.0000 </r>
       <r>  -40.8330    1.0000 </r>
       <r>  -40.7772    1.0000 </r>
       <r>  -18.4703    1.0000 </r>
       <r>  -17.9012    1.0000 </r>
       <r>  -11.2541    1.0000 </r>
       <r>  -10.2319    1.0000 </r>
       <r>   -9.7412    1.0000 </r>
       <r>   -8.8284    1.0000 </r>
       <r>   -7.5552    1.0000 </r>
       <r>   -7.0515    1.0000 </r>
       <r>   -6.7318    1.0000 </r>
       <r>   -3.6878    0.0000 </r>
       <r>   -3.3952    0.0000 </r>
       <r>   -2.2362    0.0000 </r>
       <r>   -1.6986    0.0000 </r>
       <r>    1.3518    0.0000 </r>
       <r>    2.0420    0.0000 </r>
       <r>    2.3494    0.0000 </r>
       <r>    3.2276    0.0000 </r>
       <r>    4.1906    0.0000 </r>
       <r>    4.5157    0.0000 </r>
       <r>    5.0072    0.0000 </r>
       <r>    5.4595    0.0000 </r>
      </set>
      <set comment="kpoint 11">
       <r>  -41.0362    1.0000 </r>
       <r>  -40.8273    1.0000 </r>
       <r>  -40.7837    1.0000 </r>
       <r>  -18.3113    1.0000 </r>
       <r>  -17.8166    1.0000 </r>
       <r>  -11.4286    1.0000 </r>
       <r>  -10.4125    1.0000 </r>
       <r>   -9.8018    1.0000 </r>
       <r>   -8.9267    1.0000 </r>
       <r>   -7.6322    1.0000 </r>
       <r>   -6.9276    1.0000 </r>
       <r>   -6.6155    1.0000 </r>
       <r>   -3.6823    0.0000 </r>
       <r>   -3.2767    0.0000 </r>
       <r>   -2.0778    0.0000 </r>
       <r>   -1.6315    0.0000 </r>
       <r>    0.8371    0.0000 </r>
       <r>    2.0652    0.0000 </r>
       <r>    2.4172    0.0000 </r>
       <r>    3.3777    0.0000 </r>
       <r>    4.2811    0.0000 </r>
       <r>    4.8326    0.0000 </r>
       <r>    5.3572    0.0000 </r>
       <r>    5.8944    0.0000 </r>
      </set>
      <set comment="kpoint 12">
       <r>  -41.0533    1.0000 </r>
       <r>  -40.8238    1.0000 </r>
       <r>  -40.7877    1.0000 </r>
       <r>  -18.2105    1.0000 </r>
       <r>  -17.7576    1.0000 </r>
       <r>  -11.5460    1.0000 </r>
       <r>  -10.5281    1.0000 </r>
       <r>   -9.8542    1.0000 </r>
       <r>   -8.9867    1.0000 </r>
       <r>   -7.6776    1.0000 </r>
       <r>   -6.8525    1.0000 </r>
       <r>   -6.5011    1.0000 </r>
       <r>   -3.6679    0.0000 </r>
       <r>   -3.1834    0.0000 </r>
       <r>   -1.9840    0.0000 </r>
       <r>   -1.5930    0.0000 </r>
       <r>    0.4673    0.0000 </r>
       <r>    2.0830    0.0000 </r>
       <r>    2.5112    0.0000 </r>
       <r>    3.4251    0.0000 </r>
       <r>    4.2665    0.0000 </r>
       <r>    5.0810    0.0000 </r>
       <r>    5.5907    0.0000 </r>
       <r>    5.8282    0.0000 </r>
      </set>
      <set comment="kpoint 13">
       <r>  -41.0591    1.0000 </r>
       <r>  -40.8226    1.0000 </r>
       <r>  -40.7891    1.0000 </r>
       <r>  -18.1761    1.0000 </r>
       <r>  -17.7361    1.0000 </r>
       <r>  -11.5874    1.0000 </r>
       <r>  -10.5678    1.0000 </r>
       <r>   -9.8747    1.0000 </r>
       <r>   -9.0069    1.0000 </r>
       <r>   -7.6925    1.0000 </r>
       <r>   -6.8275    1.0000 </r>
       <r>   -6.4543    1.0000 </r>
       <r>   -3.6608    0.0000 </r>
       <r>   -3.1468    0.0000 </r>
       <r>   -1.9535    0.0000 </r>
       <r>   -1.5805    0.0000 </r>
       <r>    0.3317    0.0000 </r>
       <r>    2.0948    0.0000 </r>
       <r>    2.5532    0.0000 </r>
       <r>    3.4222    0.0000 </r>
       <r>    4.2419    0.0000 </r>
       <r>    5.2395    0.0000 </r>
       <r>    5.5104    0.0000 </r>
       <r>    5.9987    0.0000 </r>
      </set>
      <set comment="kpoint 14">
       <r>  -40.8895    1.0000 </r>
       <r>  -40.7256    1.0000 </r>
       <r>  -40.7116    1.0000 </r>
       <r>  -19.8480    1.0000 </r>
       <r>  -18.5237    1.0000 </r>
       <r>  -11.3309    1.0000 </r>
       <r>   -8.6410    1.0000 </r>
       <r>   -8.3923    1.0000 </r>
       <r>   -7.9758    1.0000 </r>
       <r>   -7.4789    1.0000 </r>
       <r>   -7.0366    1.0000 </r>
       <r>   -5.8383    1.0000 </r>
       <r>   -3.2747    0.0000 </r>
       <r>   -3.0820    0.0000 </r>
       <r>   -2.9998    0.0000 </r>
       <r>   -2.8326    0.0000 </r>
       <r>    0.3373    0.0000 </r>
       <r>    0.8674    0.0000 </r>
       <r>    1.8291    0.0000 </r>
       <r>    2.1416    0.0000 </r>
       <r>    2.5266    0.0000 </r>
       <r>    3.1037    0.0000 </r>
       <r>    3.5494    0.0000 </r>
       <r>    3.6310    0.0000 </r>
      </set>
      <set comment="kpoint 15">
       <r>  -40.8850    1.0000 </r>
       <r>  -40.7488    1.0000 </r>
       <r>  -40.7172    1.0000 </r>
       <r>  -19.7504    1.0000 </r>
       <r>  -18.4816    1.0000 </r>
       <r>  -11.2222    1.0000 </r>
       <r>   -8.8441    1.0000 </r>
       <r>   -8.3009    1.0000 </r>
       <r>   -8.2482    1.0000 </r>
       <r>   -7.6413    1.0000 </r>
       <r>   -6.9071    1.0000 </r>
       <r>   -5.9036    1.0000 </r>
       <r>   -3.3874    0.0000 </r>
       <r>   -3.1741    0.0000 </r>
       <r>   -3.1050    0.0000 </r>
       <r>   -2.7489    0.0000 </r>
       <r>    0.5251    0.0000 </r>
       <r>    1.2193    0.0000 </r>
       <r>    1.9693    0.0000 </r>
       <r>    2.2711    0.0000 </r>
       <r>    2.6600    0.0000 </r>
       <r>    3.2367    0.0000 </r>
       <r>    3.7620    0.0000 </r>
       <r>    3.9500    0.0000 </r>
      </set>
      <set comment="kpoint 16">
       <r>  -40.8786    1.0000 </r>
       <r>  -40.7813    1.0000 </r>
       <r>  -40.7250    1.0000 </r>
       <r>  -19.6092    1.0000 </r>
       <r>  -18.4204    1.0000 </r>
       <r>  -11.0766    1.0000 </r>
       <r>   -9.1030    1.0000 </r>
       <r>   -8.5544    1.0000 </r>
       <r>   -8.1661    1.0000 </r>
       <r>   -7.8364    1.0000 </r>
       <r>   -6.8591    1.0000 </r>
       <r>   -6.0230    1.0000 </r>
       <r>   -3.5117    0.0000 </r>
       <r>   -3.2860    0.0000 </r>
       <r>   -3.2108    0.0000 </r>
       <r>   -2.5648    0.0000 </r>
       <r>    0.7410    0.0000 </r>
       <r>    1.6645    0.0000 </r>
       <r>    2.1822    0.0000 </r>
       <r>    2.4812    0.0000 </r>
       <r>    2.8596    0.0000 </r>
       <r>    3.4341    0.0000 </r>
       <r>    3.9502    0.0000 </r>
       <r>    4.1982    0.0000 </r>
      </set>
      <set comment="kpoint 17">
       <r>  -40.8707    1.0000 </r>
       <r>  -40.8209    1.0000 </r>
       <r>  -40.7346    1.0000 </r>
       <r>  -19.4306    1.0000 </r>
       <r>  -18.3425    1.0000 </r>
       <r>  -10.9223    1.0000 </r>
       <r>   -9.3737    1.0000 </r>
       <r>   -8.8631    1.0000 </r>
       <r>   -8.1482    1.0000 </r>
       <r>   -7.9053    1.0000 </r>
       <r>   -6.9057    1.0000 </r>
       <r>   -6.2026    1.0000 </r>
       <r>   -3.6305    0.0000 </r>
       <r>   -3.3384    0.0000 </r>
       <r>   -3.2511    0.0000 </r>
       <r>   -2.3504    0.0000 </r>
       <r>    0.9881    0.0000 </r>
       <r>    2.0372    0.0000 </r>
       <r>    2.4528    0.0000 </r>
       <r>    2.8109    0.0000 </r>
       <r>    3.1287    0.0000 </r>
       <r>    3.6899    0.0000 </r>
       <r>    3.9271    0.0000 </r>
       <r>    4.1840    0.0000 </r>
      </set>
      <set comment="kpoint 18">
       <r>  -40.8648    1.0000 </r>
       <r>  -40.8618    1.0000 </r>
       <r>  -40.7453    1.0000 </r>
       <r>  -19.2232    1.0000 </r>
       <r>  -18.2511    1.0000 </r>
       <r>  -10.8124    1.0000 </r>
       <r>   -9.6032    1.0000 </r>
       <r>   -9.1753    1.0000 </r>
       <r>   -8.3333    1.0000 </r>
       <r>   -7.7438    1.0000 </r>
       <r>   -7.0235    1.0000 </r>
       <r>   -6.4194    1.0000 </r>
       <r>   -3.6967    0.0000 </r>
       <r>   -3.4477    0.0000 </r>
       <r>   -3.1012    0.0000 </r>
       <r>   -2.1416    0.0000 </r>
       <r>    1.2628    0.0000 </r>
       <r>    2.2671    0.0000 </r>
       <r>    2.7498    0.0000 </r>
       <r>    3.0790    0.0000 </r>
       <r>    3.4515    0.0000 </r>
       <r>    3.7133    0.0000 </r>
       <r>    3.9289    0.0000 </r>
       <r>    4.0883    0.0000 </r>
      </set>
      <set comment="kpoint 19">
       <r>  -40.9097    1.0000 </r>
       <r>  -40.8528    1.0000 </r>
       <r>  -40.7564    1.0000 </r>
       <r>  -18.9984    1.0000 </r>
       <r>  -18.1505    1.0000 </r>
       <r>  -10.8172    1.0000 </r>
       <r>   -9.7478    1.0000 </r>
       <r>   -9.4688    1.0000 </r>
       <r>   -8.5212    1.0000 </r>
       <r>   -7.5589    1.0000 </r>
       <r>   -7.1719    1.0000 </r>
       <r>   -6.6173    1.0000 </r>
       <r>   -3.7120    0.0000 </r>
       <r>   -3.5124    0.0000 </r>
       <r>   -2.8799    0.0000 </r>
       <r>   -1.9586    0.0000 </r>
       <r>    1.5461    0.0000 </r>
       <r>    2.3890    0.0000 </r>
       <r>    2.8258    0.0000 </r>
       <r>    3.0902    0.0000 </r>
       <r>    3.4603    0.0000 </r>
       <r>    3.8923    0.0000 </r>
       <r>    4.0612    0.0000 </r>
       <r>    4.4535    0.0000 </r>
      </set>
      <set comment="kpoint 20">
       <r>  -40.9529    1.0000 </r>
       <r>  -40.8440    1.0000 </r>
       <r>  -40.7670    1.0000 </r>
       <r>  -18.7702    1.0000 </r>
       <r>  -18.0458    1.0000 </r>
       <r>  -10.9492    1.0000 </r>
       <r>   -9.8960    1.0000 </r>
       <r>   -9.6522    1.0000 </r>
       <r>   -8.6820    1.0000 </r>
       <r>   -7.4187    1.0000 </r>
       <r>   -7.2948    1.0000 </r>
       <r>   -6.7270    1.0000 </r>
       <r>   -3.7092    0.0000 </r>
       <r>   -3.5054    0.0000 </r>
       <r>   -2.6312    0.0000 </r>
       <r>   -1.8130    0.0000 </r>
       <r>    1.7921    0.0000 </r>
       <r>    2.2971    0.0000 </r>
       <r>    2.4856    0.0000 </r>
       <r>    3.1143    0.0000 </r>
       <r>    3.6739    0.0000 </r>
       <r>    4.1984    0.0000 </r>
       <r>    4.4020    0.0000 </r>
       <r>    4.8942    0.0000 </r>
      </set>
      <set comment="kpoint 21">
       <r>  -40.9913    1.0000 </r>
       <r>  -40.8360    1.0000 </r>
       <r>  -40.7765    1.0000 </r>
       <r>  -18.5561    1.0000 </r>
       <r>  -17.9432    1.0000 </r>
       <r>  -11.1409    1.0000 </r>
       <r>  -10.1283    1.0000 </r>
       <r>   -9.7084    1.0000 </r>
       <r>   -8.8110    1.0000 </r>
       <r>   -7.4810    1.0000 </r>
       <r>   -7.2292    1.0000 </r>
       <r>   -6.7114    1.0000 </r>
       <r>   -3.7007    0.0000 </r>
       <r>   -3.4332    0.0000 </r>
       <r>   -2.3908    0.0000 </r>
       <r>   -1.7114    0.0000 </r>
       <r>    1.6588    0.0000 </r>
       <r>    2.0702    0.0000 </r>
       <r>    2.4249    0.0000 </r>
       <r>    3.1844    0.0000 </r>
       <r>    4.0717    0.0000 </r>
       <r>    4.4133    0.0000 </r>
       <r>    4.8289    0.0000 </r>
       <r>    5.3067    0.0000 </r>
      </set>
      <set comment="kpoint 22">
       <r>  -41.0225    1.0000 </r>
       <r>  -40.8296    1.0000 </r>
       <r>  -40.7843    1.0000 </r>
       <r>  -18.3750    1.0000 </r>
       <r>  -17.8502    1.0000 </r>
       <r>  -11.3286    1.0000 </r>
       <r>  -10.3407    1.0000 </r>
       <r>   -9.7639    1.0000 </r>
       <r>   -8.9074    1.0000 </r>
       <r>   -7.5805    1.0000 </r>
       <r>   -7.1204    1.0000 </r>
       <r>   -6.6072    1.0000 </r>
       <r>   -3.6827    0.0000 </r>
       <r>   -3.3279    0.0000 </r>
       <r>   -2.1841    0.0000 </r>
       <r>   -1.6557    0.0000 </r>
       <r>    1.1176    0.0000 </r>
       <r>    2.1410    0.0000 </r>
       <r>    2.4500    0.0000 </r>
       <r>    3.3425    0.0000 </r>
       <r>    4.2869    0.0000 </r>
       <r>    4.7010    0.0000 </r>
       <r>    5.1878    0.0000 </r>
       <r>    5.6566    0.0000 </r>
      </set>
      <set comment="kpoint 23">
       <r>  -41.0445    1.0000 </r>
       <r>  -40.8250    1.0000 </r>
       <r>  -40.7897    1.0000 </r>
       <r>  -18.2447    1.0000 </r>
       <r>  -17.7769    1.0000 </r>
       <r>  -11.4739    1.0000 </r>
       <r>  -10.4948    1.0000 </r>
       <r>   -9.8251    1.0000 </r>
       <r>   -8.9717    1.0000 </r>
       <r>   -7.6507    1.0000 </r>
       <r>   -7.0324    1.0000 </r>
       <r>   -6.4821    1.0000 </r>
       <r>   -3.6635    0.0000 </r>
       <r>   -3.2201    0.0000 </r>
       <r>   -2.0270    0.0000 </r>
       <r>   -1.6413    0.0000 </r>
       <r>    0.6614    0.0000 </r>
       <r>    2.1810    0.0000 </r>
       <r>    2.5491    0.0000 </r>
       <r>    3.4345    0.0000 </r>
       <r>    4.3087    0.0000 </r>
       <r>    4.9583    0.0000 </r>
       <r>    5.4917    0.0000 </r>
       <r>    5.6357    0.0000 </r>
      </set>
      <set comment="kpoint 24">
       <r>  -41.0558    1.0000 </r>
       <r>  -40.8226    1.0000 </r>
       <r>  -40.7926    1.0000 </r>
       <r>  -18.1772    1.0000 </r>
       <r>  -17.7355    1.0000 </r>
       <r>  -11.5529    1.0000 </r>
       <r>  -10.5753    1.0000 </r>
       <r>   -9.8648    1.0000 </r>
       <r>   -9.0038    1.0000 </r>
       <r>   -7.6863    1.0000 </r>
       <r>   -6.9845    1.0000 </r>
       <r>   -6.3984    1.0000 </r>
       <r>   -3.6524    0.0000 </r>
       <r>   -3.1481    0.0000 </r>
       <r>   -1.9355    0.0000 </r>
       <r>   -1.6500    0.0000 </r>
       <r>    0.4001    0.0000 </r>
       <r>    2.2137    0.0000 </r>
       <r>    2.6302    0.0000 </r>
       <r>    3.4382    0.0000 </r>
       <r>    4.2691    0.0000 </r>
       <r>    5.1528    0.0000 </r>
       <r>    5.4188    0.0000 </r>
       <r>    5.9948    0.0000 </r>
      </set>
      <set comment="kpoint 25">
       <r>  -40.8796    1.0000 </r>
       <r>  -40.7754    1.0000 </r>
       <r>  -40.7244    1.0000 </r>
       <r>  -19.6322    1.0000 </r>
       <r>  -18.4304    1.0000 </r>
       <r>  -11.0981    1.0000 </r>
       <r>   -9.0602    1.0000 </r>
       <r>   -8.4897    1.0000 </r>
       <r>   -8.1892    1.0000 </r>
       <r>   -7.8617    1.0000 </r>
       <r>   -6.8197    1.0000 </r>
       <r>   -5.9996    1.0000 </r>
       <r>   -3.5042    0.0000 </r>
       <r>   -3.3003    0.0000 </r>
       <r>   -3.1979    0.0000 </r>
       <r>   -2.5738    0.0000 </r>
       <r>    0.7115    0.0000 </r>
       <r>    1.6160    0.0000 </r>
       <r>    2.1467    0.0000 </r>
       <r>    2.4403    0.0000 </r>
       <r>    2.8264    0.0000 </r>
       <r>    3.4017    0.0000 </r>
       <r>    3.9221    0.0000 </r>
       <r>    4.2456    0.0000 </r>
      </set>
      <set comment="kpoint 26">
       <r>  -40.8726    1.0000 </r>
       <r>  -40.8097    1.0000 </r>
       <r>  -40.7340    1.0000 </r>
       <r>  -19.4740    1.0000 </r>
       <r>  -18.3613    1.0000 </r>
       <r>  -10.9508    1.0000 </r>
       <r>   -9.3059    1.0000 </r>
       <r>   -8.7424    1.0000 </r>
       <r>   -8.2073    1.0000 </r>
       <r>   -7.9715    1.0000 </r>
       <r>   -6.7983    1.0000 </r>
       <r>   -6.1494    1.0000 </r>
       <r>   -3.6297    0.0000 </r>
       <r>   -3.3458    0.0000 </r>
       <r>   -3.3082    0.0000 </r>
       <r>   -2.3526    0.0000 </r>
       <r>    0.9395    0.0000 </r>
       <r>    2.0223    0.0000 </r>
       <r>    2.3912    0.0000 </r>
       <r>    2.7204    0.0000 </r>
       <r>    3.0600    0.0000 </r>
       <r>    3.6293    0.0000 </r>
       <r>    4.0167    0.0000 </r>
       <r>    4.1731    0.0000 </r>
      </set>
      <set comment="kpoint 27">
       <r>  -40.8644    1.0000 </r>
       <r>  -40.8494    1.0000 </r>
       <r>  -40.7453    1.0000 </r>
       <r>  -19.2830    1.0000 </r>
       <r>  -18.2772    1.0000 </r>
       <r>  -10.8201    1.0000 </r>
       <r>   -9.5333    1.0000 </r>
       <r>   -9.0225    1.0000 </r>
       <r>   -8.4359    1.0000 </r>
       <r>   -7.8411    1.0000 </r>
       <r>   -6.8587    1.0000 </r>
       <r>   -6.3422    1.0000 </r>
       <r>   -3.7360    0.0000 </r>
       <r>   -3.3995    0.0000 </r>
       <r>   -3.2709    0.0000 </r>
       <r>   -2.1288    0.0000 </r>
       <r>    1.2046    0.0000 </r>
       <r>    2.3159    0.0000 </r>
       <r>    2.6723    0.0000 </r>
       <r>    3.0846    0.0000 </r>
       <r>    3.3676    0.0000 </r>
       <r>    3.7872    0.0000 </r>
       <r>    3.9251    0.0000 </r>
       <r>    4.2254    0.0000 </r>
      </set>
      <set comment="kpoint 28">
       <r>  -40.8916    1.0000 </r>
       <r>  -40.8556    1.0000 </r>
       <r>  -40.7574    1.0000 </r>
       <r>  -19.0691    1.0000 </r>
       <r>  -18.1815    1.0000 </r>
       <r>  -10.7708    1.0000 </r>
       <r>   -9.6880    1.0000 </r>
       <r>   -9.3267    1.0000 </r>
       <r>   -8.6350    1.0000 </r>
       <r>   -7.7020    1.0000 </r>
       <r>   -6.9786    1.0000 </r>
       <r>   -6.5358    1.0000 </r>
       <r>   -3.7968    0.0000 </r>
       <r>   -3.4454    0.0000 </r>
       <r>   -3.1041    0.0000 </r>
       <r>   -1.9291    0.0000 </r>
       <r>    1.4958    0.0000 </r>
       <r>    2.4957    0.0000 </r>
       <r>    2.9661    0.0000 </r>
       <r>    3.1274    0.0000 </r>
       <r>    3.5868    0.0000 </r>
       <r>    3.8291    0.0000 </r>
       <r>    4.0279    0.0000 </r>
       <r>    4.3189    0.0000 </r>
      </set>
      <set comment="kpoint 29">
       <r>  -40.9335    1.0000 </r>
       <r>  -40.8468    1.0000 </r>
       <r>  -40.7695    1.0000 </r>
       <r>  -18.8449    1.0000 </r>
       <r>  -18.0790    1.0000 </r>
       <r>  -10.8481    1.0000 </r>
       <r>   -9.7893    1.0000 </r>
       <r>   -9.5908    1.0000 </r>
       <r>   -8.7801    1.0000 </r>
       <r>   -7.6050    1.0000 </r>
       <r>   -7.1228    1.0000 </r>
       <r>   -6.6614    1.0000 </r>
       <r>   -3.8032    0.0000 </r>
       <r>   -3.4487    0.0000 </r>
       <r>   -2.8802    0.0000 </r>
       <r>   -1.7706    0.0000 </r>
       <r>    1.7881    0.0000 </r>
       <r>    2.5668    0.0000 </r>
       <r>    2.6948    0.0000 </r>
       <r>    3.2386    0.0000 </r>
       <r>    3.6062    0.0000 </r>
       <r>    4.1284    0.0000 </r>
       <r>    4.2907    0.0000 </r>
       <r>    4.7352    0.0000 </r>
      </set>
      <set comment="kpoint 30">
       <r>  -40.9722    1.0000 </r>
       <r>  -40.8385    1.0000 </r>
       <r>  -40.7808    1.0000 </r>
       <r>  -18.6261    1.0000 </r>
       <r>  -17.9751    1.0000 </r>
       <r>  -11.0112    1.0000 </r>
       <r>  -10.0193    1.0000 </r>
       <r>   -9.6690    1.0000 </r>
       <r>   -8.8792    1.0000 </r>
       <r>   -7.5574    1.0000 </r>
       <r>   -7.2655    1.0000 </r>
       <r>   -6.6678    1.0000 </r>
       <r>   -3.7596    0.0000 </r>
       <r>   -3.4187    0.0000 </r>
       <r>   -2.6362    0.0000 </r>
       <r>   -1.6649    0.0000 </r>
       <r>    1.9598    0.0000 </r>
       <r>    2.1973    0.0000 </r>
       <r>    2.6174    0.0000 </r>
       <r>    3.2677    0.0000 </r>
       <r>    3.9478    0.0000 </r>
       <r>    4.3873    0.0000 </r>
       <r>    4.6762    0.0000 </r>
       <r>    5.1690    0.0000 </r>
      </set>
      <set comment="kpoint 31">
       <r>  -41.0053    1.0000 </r>
       <r>  -40.8315    1.0000 </r>
       <r>  -40.7904    1.0000 </r>
       <r>  -18.4307    1.0000 </r>
       <r>  -17.8766    1.0000 </r>
       <r>  -11.1929    1.0000 </r>
       <r>  -10.2711    1.0000 </r>
       <r>   -9.7112    1.0000 </r>
       <r>   -8.9428    1.0000 </r>
       <r>   -7.5515    1.0000 </r>
       <r>   -7.3582    1.0000 </r>
       <r>   -6.5796    1.0000 </r>
       <r>   -3.6934    0.0000 </r>
       <r>   -3.3560    0.0000 </r>
       <r>   -2.3994    0.0000 </r>
       <r>   -1.6189    0.0000 </r>
       <r>    1.4757    0.0000 </r>
       <r>    2.2985    0.0000 </r>
       <r>    2.6266    0.0000 </r>
       <r>    3.3754    0.0000 </r>
       <r>    4.2949    0.0000 </r>
       <r>    4.6080    0.0000 </r>
       <r>    5.0597    0.0000 </r>
       <r>    5.4043    0.0000 </r>
      </set>
      <set comment="kpoint 32">
       <r>  -41.0305    1.0000 </r>
       <r>  -40.8260    1.0000 </r>
       <r>  -40.7978    1.0000 </r>
       <r>  -18.2772    1.0000 </r>
       <r>  -17.7924    1.0000 </r>
       <r>  -11.3495    1.0000 </r>
       <r>  -10.4698    1.0000 </r>
       <r>   -9.7751    1.0000 </r>
       <r>   -8.9802    1.0000 </r>
       <r>   -7.6125    1.0000 </r>
       <r>   -7.3472    1.0000 </r>
       <r>   -6.4529    1.0000 </r>
       <r>   -3.6496    0.0000 </r>
       <r>   -3.2542    0.0000 </r>
       <r>   -2.1865    0.0000 </r>
       <r>   -1.6332    0.0000 </r>
       <r>    0.9600    0.0000 </r>
       <r>    2.4201    0.0000 </r>
       <r>    2.7169    0.0000 </r>
       <r>    3.4846    0.0000 </r>
       <r>    4.3928    0.0000 </r>
       <r>    4.8272    0.0000 </r>
       <r>    5.2048    0.0000 </r>
       <r>    5.5115    0.0000 </r>
      </set>
      <set comment="kpoint 33">
       <r>  -41.0463    1.0000 </r>
       <r>  -40.8226    1.0000 </r>
       <r>  -40.8025    1.0000 </r>
       <r>  -18.1801    1.0000 </r>
       <r>  -17.7337    1.0000 </r>
       <r>  -11.4544    1.0000 </r>
       <r>  -10.5955    1.0000 </r>
       <r>   -9.8330    1.0000 </r>
       <r>   -8.9990    1.0000 </r>
       <r>   -7.6750    1.0000 </r>
       <r>   -7.3080    1.0000 </r>
       <r>   -6.3415    1.0000 </r>
       <r>   -3.6404    0.0000 </r>
       <r>   -3.1460    0.0000 </r>
       <r>   -2.0084    0.0000 </r>
       <r>   -1.6977    0.0000 </r>
       <r>    0.5927    0.0000 </r>
       <r>    2.5127    0.0000 </r>
       <r>    2.8396    0.0000 </r>
       <r>    3.4969    0.0000 </r>
       <r>    4.3264    0.0000 </r>
       <r>    4.8922    0.0000 </r>
       <r>    5.3175    0.0000 </r>
       <r>    5.9144    0.0000 </r>
      </set>
      <set comment="kpoint 34">
       <r>  -41.0517    1.0000 </r>
       <r>  -40.8214    1.0000 </r>
       <r>  -40.8041    1.0000 </r>
       <r>  -18.1471    1.0000 </r>
       <r>  -17.7124    1.0000 </r>
       <r>  -11.4913    1.0000 </r>
       <r>  -10.6384    1.0000 </r>
       <r>   -9.8557    1.0000 </r>
       <r>   -9.0047    1.0000 </r>
       <r>   -7.6984    1.0000 </r>
       <r>   -7.2916    1.0000 </r>
       <r>   -6.2966    1.0000 </r>
       <r>   -3.6420    0.0000 </r>
       <r>   -3.0985    0.0000 </r>
       <r>   -1.9087    0.0000 </r>
       <r>   -1.7611    0.0000 </r>
       <r>    0.4580    0.0000 </r>
       <r>    2.5560    0.0000 </r>
       <r>    2.8977    0.0000 </r>
       <r>    3.4766    0.0000 </r>
       <r>    4.2680    0.0000 </r>
       <r>    4.9175    0.0000 </r>
       <r>    5.4087    0.0000 </r>
       <r>    6.0624    0.0000 </r>
      </set>
      <set comment="kpoint 35">
       <r>  -40.8652    1.0000 </r>
       <r>  -40.8437    1.0000 </r>
       <r>  -40.7458    1.0000 </r>
       <r>  -19.3032    1.0000 </r>
       <r>  -18.2859    1.0000 </r>
       <r>  -10.8235    1.0000 </r>
       <r>   -9.5058    1.0000 </r>
       <r>   -8.9409    1.0000 </r>
       <r>   -8.5089    1.0000 </r>
       <r>   -7.8783    1.0000 </r>
       <r>   -6.7876    1.0000 </r>
       <r>   -6.3130    1.0000 </r>
       <r>   -3.7516    0.0000 </r>
       <r>   -3.3853    0.0000 </r>
       <r>   -3.3415    0.0000 </r>
       <r>   -2.1182    0.0000 </r>
       <r>    1.1861    0.0000 </r>
       <r>    2.3479    0.0000 </r>
       <r>    2.6467    0.0000 </r>
       <r>    3.0728    0.0000 </r>
       <r>    3.3323    0.0000 </r>
       <r>    3.8224    0.0000 </r>
       <r>    3.9086    0.0000 </r>
       <r>    4.3617    0.0000 </r>
      </set>
      <set comment="kpoint 36">
       <r>  -40.8808    1.0000 </r>
       <r>  -40.8570    1.0000 </r>
       <r>  -40.7594    1.0000 </r>
       <r>  -19.1053    1.0000 </r>
       <r>  -18.1972    1.0000 </r>
       <r>  -10.7465    1.0000 </r>
       <r>   -9.6502    1.0000 </r>
       <r>   -9.1938    1.0000 </r>
       <r>   -8.7716    1.0000 </r>
       <r>   -7.7875    1.0000 </r>
       <r>   -6.8460    1.0000 </r>
       <r>   -6.4850    1.0000 </r>
       <r>   -3.8454    0.0000 </r>
       <r>   -3.4138    0.0000 </r>
       <r>   -3.2541    0.0000 </r>
       <r>   -1.9010    0.0000 </r>
       <r>    1.4711    0.0000 </r>
       <r>    2.5889    0.0000 </r>
       <r>    2.9413    0.0000 </r>
       <r>    3.2728    0.0000 </r>
       <r>    3.6246    0.0000 </r>
       <r>    3.8297    0.0000 </r>
       <r>    4.1336    0.0000 </r>
       <r>    4.2707    0.0000 </r>
      </set>
      <set comment="kpoint 37">
       <r>  -40.9188    1.0000 </r>
       <r>  -40.8485    1.0000 </r>
       <r>  -40.7736    1.0000 </r>
       <r>  -18.8915    1.0000 </r>
       <r>  -18.0991    1.0000 </r>
       <r>  -10.7739    1.0000 </r>
       <r>   -9.7136    1.0000 </r>
       <r>   -9.5030    1.0000 </r>
       <r>   -8.9204    1.0000 </r>
       <r>   -7.7569    1.0000 </r>
       <r>   -6.9557    1.0000 </r>
       <r>   -6.6137    1.0000 </r>
       <r>   -3.8753    0.0000 </r>
       <r>   -3.4094    0.0000 </r>
       <r>   -3.0891    0.0000 </r>
       <r>   -1.7244    0.0000 </r>
       <r>    1.7784    0.0000 </r>
       <r>    2.7410    0.0000 </r>
       <r>    2.9630    0.0000 </r>
       <r>    3.2851    0.0000 </r>
       <r>    3.7469    0.0000 </r>
       <r>    4.0843    0.0000 </r>
       <r>    4.2660    0.0000 </r>
       <r>    4.6231    0.0000 </r>
      </set>
      <set comment="kpoint 38">
       <r>  -40.9551    1.0000 </r>
       <r>  -40.8403    1.0000 </r>
       <r>  -40.7875    1.0000 </r>
       <r>  -18.6755    1.0000 </r>
       <r>  -17.9964    1.0000 </r>
       <r>  -10.8946    1.0000 </r>
       <r>   -9.9087    1.0000 </r>
       <r>   -9.6310    1.0000 </r>
       <r>   -8.9925    1.0000 </r>
       <r>   -7.7852    1.0000 </r>
       <r>   -7.1059    1.0000 </r>
       <r>   -6.6423    1.0000 </r>
       <r>   -3.8274    0.0000 </r>
       <r>   -3.3890    0.0000 </r>
       <r>   -2.8776    0.0000 </r>
       <r>   -1.6019    0.0000 </r>
       <r>    2.0638    0.0000 </r>
       <r>    2.4986    0.0000 </r>
       <r>    2.8202    0.0000 </r>
       <r>    3.4713    0.0000 </r>
       <r>    3.8818    0.0000 </r>
       <r>    4.3911    0.0000 </r>
       <r>    4.5732    0.0000 </r>
       <r>    5.0441    0.0000 </r>
      </set>
      <set comment="kpoint 39">
       <r>  -40.9874    1.0000 </r>
       <r>  -40.8329    1.0000 </r>
       <r>  -40.8000    1.0000 </r>
       <r>  -18.4741    1.0000 </r>
       <r>  -17.8954    1.0000 </r>
       <r>  -11.0506    1.0000 </r>
       <r>  -10.2036    1.0000 </r>
       <r>   -9.6452    1.0000 </r>
       <r>   -9.0187    1.0000 </r>
       <r>   -7.8158    1.0000 </r>
       <r>   -7.2761    1.0000 </r>
       <r>   -6.5760    1.0000 </r>
       <r>   -3.7250    0.0000 </r>
       <r>   -3.3563    0.0000 </r>
       <r>   -2.6520    0.0000 </r>
       <r>   -1.5402    0.0000 </r>
       <r>    1.8519    0.0000 </r>
       <r>    2.4355    0.0000 </r>
       <r>    2.8590    0.0000 </r>
       <r>    3.5296    0.0000 </r>
       <r>    4.2615    0.0000 </r>
       <r>    4.5712    0.0000 </r>
       <r>    4.9256    0.0000 </r>
       <r>    5.2082    0.0000 </r>
      </set>
      <set comment="kpoint 40">
       <r>  -41.0135    1.0000 </r>
       <r>  -40.8269    1.0000 </r>
       <r>  -40.8102    1.0000 </r>
       <r>  -18.3050    1.0000 </r>
       <r>  -17.8035    1.0000 </r>
       <r>  -11.1973    1.0000 </r>
       <r>  -10.4492    1.0000 </r>
       <r>   -9.7002    1.0000 </r>
       <r>   -9.0163    1.0000 </r>
       <r>   -7.8170    1.0000 </r>
       <r>   -7.4299    1.0000 </r>
       <r>   -6.4566    1.0000 </r>
       <r>   -3.6457    0.0000 </r>
       <r>   -3.2745    0.0000 </r>
       <r>   -2.4376    0.0000 </r>
       <r>   -1.5380    0.0000 </r>
       <r>    1.3210    0.0000 </r>
       <r>    2.6582    0.0000 </r>
       <r>    2.9374    0.0000 </r>
       <r>    3.6208    0.0000 </r>
       <r>    4.4337    0.0000 </r>
       <r>    4.6844    0.0000 </r>
       <r>    5.0376    0.0000 </r>
       <r>    5.4442    0.0000 </r>
      </set>
      <set comment="kpoint 41">
       <r>  -41.0320    1.0000 </r>
       <r>  -40.8226    1.0000 </r>
       <r>  -40.8174    1.0000 </r>
       <r>  -18.1842    1.0000 </r>
       <r>  -17.7311    1.0000 </r>
       <r>  -11.3090    1.0000 </r>
       <r>  -10.6216    1.0000 </r>
       <r>   -9.7739    1.0000 </r>
       <r>   -9.0007    1.0000 </r>
       <r>   -7.8113    1.0000 </r>
       <r>   -7.5355    1.0000 </r>
       <r>   -6.3266    1.0000 </r>
       <r>   -3.6448    0.0000 </r>
       <r>   -3.1321    0.0000 </r>
       <r>   -2.2561    0.0000 </r>
       <r>   -1.5810    0.0000 </r>
       <r>    0.8787    0.0000 </r>
       <r>    2.8522    0.0000 </r>
       <r>    3.0859    0.0000 </r>
       <r>    3.6467    0.0000 </r>
       <r>    4.2516    0.0000 </r>
       <r>    4.7670    0.0000 </r>
       <r>    5.2886    0.0000 </r>
       <r>    5.8064    0.0000 </r>
      </set>
      <set comment="kpoint 42">
       <r>  -41.0415    1.0000 </r>
       <r>  -40.8211    1.0000 </r>
       <r>  -40.8204    1.0000 </r>
       <r>  -18.1217    1.0000 </r>
       <r>  -17.6904    1.0000 </r>
       <r>  -11.3692    1.0000 </r>
       <r>  -10.7102    1.0000 </r>
       <r>   -9.8234    1.0000 </r>
       <r>   -8.9874    1.0000 </r>
       <r>   -7.8175    1.0000 </r>
       <r>   -7.5798    1.0000 </r>
       <r>   -6.2391    1.0000 </r>
       <r>   -3.6700    0.0000 </r>
       <r>   -3.0211    0.0000 </r>
       <r>   -2.1394    0.0000 </r>
       <r>   -1.6321    0.0000 </r>
       <r>    0.6243    0.0000 </r>
       <r>    3.0009    0.0000 </r>
       <r>    3.2356    0.0000 </r>
       <r>    3.5798    0.0000 </r>
       <r>    4.0699    0.0000 </r>
       <r>    4.8266    0.0000 </r>
       <r>    5.4599    0.0000 </r>
       <r>    6.1174    0.0000 </r>
      </set>
      <set comment="kpoint 43">
       <r>  -40.9132    1.0000 </r>
       <r>  -40.8491    1.0000 </r>
       <r>  -40.7756    1.0000 </r>
       <r>  -18.9073    1.0000 </r>
       <r>  -18.1058    1.0000 </r>
       <r>  -10.7465    1.0000 </r>
       <r>   -9.6880    1.0000 </r>
       <r>   -9.4467    1.0000 </r>
       <r>   -8.9968    1.0000 </r>
       <r>   -7.8136    1.0000 </r>
       <r>   -6.8899    1.0000 </r>
       <r>   -6.5952    1.0000 </r>
       <r>   -3.9018    0.0000 </r>
       <r>   -3.3962    0.0000 </r>
       <r>   -3.1705    0.0000 </r>
       <r>   -1.7058    0.0000 </r>
       <r>    1.7732    0.0000 </r>
       <r>    2.8032    0.0000 </r>
       <r>    3.0852    0.0000 </r>
       <r>    3.2808    0.0000 </r>
       <r>    3.8618    0.0000 </r>
       <r>    4.0882    0.0000 </r>
       <r>    4.2790    0.0000 </r>
       <r>    4.5730    0.0000 </r>
      </set>
      <set comment="kpoint 44">
       <r>  -40.9445    1.0000 </r>
       <r>  -40.8412    1.0000 </r>
       <r>  -40.7927    1.0000 </r>
       <r>  -18.7011    1.0000 </r>
       <r>  -18.0071    1.0000 </r>
       <r>  -10.8244    1.0000 </r>
       <r>   -9.8266    1.0000 </r>
       <r>   -9.6077    1.0000 </r>
       <r>   -9.0823    1.0000 </r>
       <r>   -7.9264    1.0000 </r>
       <r>   -6.9967    1.0000 </r>
       <r>   -6.6313    1.0000 </r>
       <r>   -3.8685    0.0000 </r>
       <r>   -3.3709    0.0000 </r>
       <r>   -3.0257    0.0000 </r>
       <r>   -1.5612    0.0000 </r>
       <r>    2.0842    0.0000 </r>
       <r>    2.7332    0.0000 </r>
       <r>    2.9484    0.0000 </r>
       <r>    3.6108    0.0000 </r>
       <r>    3.9424    0.0000 </r>
       <r>    4.3902    0.0000 </r>
       <r>    4.5382    0.0000 </r>
       <r>    4.9587    0.0000 </r>
      </set>
      <set comment="kpoint 45">
       <r>  -40.9730    1.0000 </r>
       <r>  -40.8338    1.0000 </r>
       <r>  -40.8091    1.0000 </r>
       <r>  -18.5016    1.0000 </r>
       <r>  -17.9065    1.0000 </r>
       <r>  -10.9397    1.0000 </r>
       <r>  -10.1504    1.0000 </r>
       <r>   -9.5772    1.0000 </r>
       <r>   -9.0952    1.0000 </r>
       <r>   -8.0641    1.0000 </r>
       <r>   -7.1601    1.0000 </r>
       <r>   -6.5832    1.0000 </r>
       <r>   -3.7569    0.0000 </r>
       <r>   -3.3470    0.0000 </r>
       <r>   -2.8465    0.0000 </r>
       <r>   -1.4718    0.0000 </r>
       <r>    2.1548    0.0000 </r>
       <r>    2.5212    0.0000 </r>
       <r>    3.0241    0.0000 </r>
       <r>    3.7526    0.0000 </r>
       <r>    4.2241    0.0000 </r>
       <r>    4.4952    0.0000 </r>
       <r>    4.8510    0.0000 </r>
       <r>    5.2175    0.0000 </r>
      </set>
      <set comment="kpoint 46">
       <r>  -40.9971    1.0000 </r>
       <r>  -40.8275    1.0000 </r>
       <r>  -40.8235    1.0000 </r>
       <r>  -18.3254    1.0000 </r>
       <r>  -17.8105    1.0000 </r>
       <r>  -11.0547    1.0000 </r>
       <r>  -10.4333    1.0000 </r>
       <r>   -9.6000    1.0000 </r>
       <r>   -9.0655    1.0000 </r>
       <r>   -8.1583    1.0000 </r>
       <r>   -7.3433    1.0000 </r>
       <r>   -6.4759    1.0000 </r>
       <r>   -3.6545    0.0000 </r>
       <r>   -3.2799    0.0000 </r>
       <r>   -2.6639    0.0000 </r>
       <r>   -1.4342    0.0000 </r>
       <r>    1.6903    0.0000 </r>
       <r>    2.7722    0.0000 </r>
       <r>    3.0924    0.0000 </r>
       <r>    3.8232    0.0000 </r>
       <r>    4.3205    0.0000 </r>
       <r>    4.6787    0.0000 </r>
       <r>    5.1102    0.0000 </r>
       <r>    5.4244    0.0000 </r>
      </set>
      <set comment="kpoint 47">
       <r>  -41.0153    1.0000 </r>
       <r>  -40.8347    1.0000 </r>
       <r>  -40.8226    1.0000 </r>
       <r>  -18.1883    1.0000 </r>
       <r>  -17.7284    1.0000 </r>
       <r>  -11.1489    1.0000 </r>
       <r>  -10.6449    1.0000 </r>
       <r>   -9.6799    1.0000 </r>
       <r>   -9.0137    1.0000 </r>
       <r>   -8.1964    1.0000 </r>
       <r>   -7.5102    1.0000 </r>
       <r>   -6.3372    1.0000 </r>
       <r>   -3.6658    0.0000 </r>
       <r>   -3.1105    0.0000 </r>
       <r>   -2.5053    0.0000 </r>
       <r>   -1.4362    0.0000 </r>
       <r>    1.2201    0.0000 </r>
       <r>    3.0342    0.0000 </r>
       <r>    3.1968    0.0000 </r>
       <r>    3.8913    0.0000 </r>
       <r>    4.1469    0.0000 </r>
       <r>    4.9553    0.0000 </r>
       <r>    5.3197    0.0000 </r>
       <r>    5.7658    0.0000 </r>
      </set>
      <set comment="kpoint 48">
       <r>  -41.0266    1.0000 </r>
       <r>  -40.8418    1.0000 </r>
       <r>  -40.8196    1.0000 </r>
       <r>  -18.1022    1.0000 </r>
       <r>  -17.6716    1.0000 </r>
       <r>  -11.2109    1.0000 </r>
       <r>  -10.7732    1.0000 </r>
       <r>   -9.7619    1.0000 </r>
       <r>   -8.9641    1.0000 </r>
       <r>   -8.2067    1.0000 </r>
       <r>   -7.6285    1.0000 </r>
       <r>   -6.2124    1.0000 </r>
       <r>   -3.7309    0.0000 </r>
       <r>   -2.9339    0.0000 </r>
       <r>   -2.3951    0.0000 </r>
       <r>   -1.4560    0.0000 </r>
       <r>    0.8769    0.0000 </r>
       <r>    3.2494    0.0000 </r>
       <r>    3.3545    0.0000 </r>
       <r>    3.8709    0.0000 </r>
       <r>    3.9826    0.0000 </r>
       <r>    5.0468    0.0000 </r>
       <r>    5.5222    0.0000 </r>
       <r>    6.1290    0.0000 </r>
      </set>
      <set comment="kpoint 49">
       <r>  -41.0305    1.0000 </r>
       <r>  -40.8442    1.0000 </r>
       <r>  -40.8185    1.0000 </r>
       <r>  -18.0729    1.0000 </r>
       <r>  -17.6510    1.0000 </r>
       <r>  -11.2328    1.0000 </r>
       <r>  -10.8157    1.0000 </r>
       <r>   -9.7955    1.0000 </r>
       <r>   -8.9431    1.0000 </r>
       <r>   -8.2089    1.0000 </r>
       <r>   -7.6715    1.0000 </r>
       <r>   -6.1608    1.0000 </r>
       <r>   -3.7640    0.0000 </r>
       <r>   -2.8602    0.0000 </r>
       <r>   -2.3551    0.0000 </r>
       <r>   -1.4670    0.0000 </r>
       <r>    0.7493    0.0000 </r>
       <r>    3.3350    0.0000 </r>
       <r>    3.4860    0.0000 </r>
       <r>    3.7924    0.0000 </r>
       <r>    3.9070    0.0000 </r>
       <r>    5.0717    0.0000 </r>
       <r>    5.6064    0.0000 </r>
       <r>    6.2138    0.0000 </r>
      </set>
      <set comment="kpoint 50">
       <r>  -40.9674    1.0000 </r>
       <r>  -40.8342    1.0000 </r>
       <r>  -40.8130    1.0000 </r>
       <r>  -18.5110    1.0000 </r>
       <r>  -17.9101    1.0000 </r>
       <r>  -10.8973    1.0000 </r>
       <r>  -10.1297    1.0000 </r>
       <r>   -9.5439    1.0000 </r>
       <r>   -9.1287    1.0000 </r>
       <r>   -8.1622    1.0000 </r>
       <r>   -7.1135    1.0000 </r>
       <r>   -6.5874    1.0000 </r>
       <r>   -3.7697    0.0000 </r>
       <r>   -3.3426    0.0000 </r>
       <r>   -2.9191    0.0000 </r>
       <r>   -1.4456    0.0000 </r>
       <r>    2.2713    0.0000 </r>
       <r>    2.5606    0.0000 </r>
       <r>    3.0696    0.0000 </r>
       <r>    3.8552    0.0000 </r>
       <r>    4.2208    0.0000 </r>
       <r>    4.4491    0.0000 </r>
       <r>    4.8379    0.0000 </r>
       <r>    5.3111    0.0000 </r>
      </set>
      <set comment="kpoint 51">
       <r>  -40.9863    1.0000 </r>
       <r>  -40.8326    1.0000 </r>
       <r>  -40.8278    1.0000 </r>
       <r>  -18.3361    1.0000 </r>
       <r>  -17.8139    1.0000 </r>
       <r>  -10.9666    1.0000 </r>
       <r>  -10.4248    1.0000 </r>
       <r>   -9.5046    1.0000 </r>
       <r>   -9.1076    1.0000 </r>
       <r>   -8.3879    1.0000 </r>
       <r>   -7.2816    1.0000 </r>
       <r>   -6.4914    1.0000 </r>
       <r>   -3.6639    0.0000 </r>
       <r>   -3.2795    0.0000 </r>
       <r>   -2.7942    0.0000 </r>
       <r>   -1.3707    0.0000 </r>
       <r>    1.9748    0.0000 </r>
       <r>    2.7526    0.0000 </r>
       <r>    3.1259    0.0000 </r>
       <r>    3.9195    0.0000 </r>
       <r>    4.3577    0.0000 </r>
       <r>    4.6709    0.0000 </r>
       <r>    5.2614    0.0000 </r>
       <r>    5.4876    0.0000 </r>
      </set>
      <set comment="kpoint 52">
       <r>  -41.0007    1.0000 </r>
       <r>  -40.8497    1.0000 </r>
       <r>  -40.8226    1.0000 </r>
       <r>  -18.1914    1.0000 </r>
       <r>  -17.7263    1.0000 </r>
       <r>  -11.0222    1.0000 </r>
       <r>  -10.6578    1.0000 </r>
       <r>   -9.5516    1.0000 </r>
       <r>   -9.0428    1.0000 </r>
       <r>   -8.5388    1.0000 </r>
       <r>   -7.4656    1.0000 </r>
       <r>   -6.3531    1.0000 </r>
       <r>   -3.6877    0.0000 </r>
       <r>   -3.0933    0.0000 </r>
       <r>   -2.6788    0.0000 </r>
       <r>   -1.3264    0.0000 </r>
       <r>    1.5600    0.0000 </r>
       <r>    2.8661    0.0000 </r>
       <r>    3.2519    0.0000 </r>
       <r>    3.9915    0.0000 </r>
       <r>    4.4061    0.0000 </r>
       <r>    5.1263    0.0000 </r>
       <r>    5.4901    0.0000 </r>
       <r>    5.7978    0.0000 </r>
      </set>
      <set comment="kpoint 53">
       <r>  -41.0102    1.0000 </r>
       <r>  -40.8623    1.0000 </r>
       <r>  -40.8190    1.0000 </r>
       <r>  -18.0890    1.0000 </r>
       <r>  -17.6578    1.0000 </r>
       <r>  -11.0714    1.0000 </r>
       <r>  -10.7979    1.0000 </r>
       <r>   -9.6605    1.0000 </r>
       <r>   -8.9588    1.0000 </r>
       <r>   -8.6097    1.0000 </r>
       <r>   -7.6281    1.0000 </r>
       <r>   -6.2020    1.0000 </r>
       <r>   -3.7944    0.0000 </r>
       <r>   -2.8662    0.0000 </r>
       <r>   -2.5931    0.0000 </r>
       <r>   -1.3032    0.0000 </r>
       <r>    1.1840    0.0000 </r>
       <r>    2.8753    0.0000 </r>
       <r>    3.4692    0.0000 </r>
       <r>    4.1058    0.0000 </r>
       <r>    4.4470    0.0000 </r>
       <r>    5.4026    0.0000 </r>
       <r>    5.6385    0.0000 </r>
       <r>    6.1305    0.0000 </r>
      </set>
      <set comment="kpoint 54">
       <r>  -41.0150    1.0000 </r>
       <r>  -40.8690    1.0000 </r>
       <r>  -40.8171    1.0000 </r>
       <r>  -18.0363    1.0000 </r>
       <r>  -17.6196    1.0000 </r>
       <r>  -11.1101    1.0000 </r>
       <r>  -10.8489    1.0000 </r>
       <r>   -9.7460    1.0000 </r>
       <r>   -8.8948    1.0000 </r>
       <r>   -8.6375    1.0000 </r>
       <r>   -7.7272    1.0000 </r>
       <r>   -6.0973    1.0000 </r>
       <r>   -3.8827    0.0000 </r>
       <r>   -2.7156    0.0000 </r>
       <r>   -2.5484    0.0000 </r>
       <r>   -1.2938    0.0000 </r>
       <r>    0.9573    0.0000 </r>
       <r>    2.8764    0.0000 </r>
       <r>    3.6509    0.0000 </r>
       <r>    4.1713    0.0000 </r>
       <r>    4.4371    0.0000 </r>
       <r>    5.4736    0.0000 </r>
       <r>    5.7216    0.0000 </r>
       <r>    6.2852    0.0000 </r>
      </set>
      <set comment="kpoint 55">
       <r>  -40.9945    1.0000 </r>
       <r>  -40.8560    1.0000 </r>
       <r>  -40.8226    1.0000 </r>
       <r>  -18.1925    1.0000 </r>
       <r>  -17.7255    1.0000 </r>
       <r>  -10.9746    1.0000 </r>
       <r>  -10.6605    1.0000 </r>
       <r>   -9.4652    1.0000 </r>
       <r>   -9.0757    1.0000 </r>
       <r>   -8.6834    1.0000 </r>
       <r>   -7.4469    1.0000 </r>
       <r>   -6.3601    1.0000 </r>
       <r>   -3.6967    0.0000 </r>
       <r>   -3.0875    0.0000 </r>
       <r>   -2.7402    0.0000 </r>
       <r>   -1.2857    0.0000 </r>
       <r>    1.7388    0.0000 </r>
       <r>    2.7063    0.0000 </r>
       <r>    3.2732    0.0000 </r>
       <r>    4.0312    0.0000 </r>
       <r>    4.5547    0.0000 </r>
       <r>    5.1597    0.0000 </r>
       <r>    5.6589    0.0000 </r>
       <r>    5.8202    0.0000 </r>
      </set>
      <set comment="kpoint 56">
       <r>  -40.9982    1.0000 </r>
       <r>  -40.8765    1.0000 </r>
       <r>  -40.8187    1.0000 </r>
       <r>  -18.0823    1.0000 </r>
       <r>  -17.6505    1.0000 </r>
       <r>  -11.0140    1.0000 </r>
       <r>  -10.7724    1.0000 </r>
       <r>   -9.5232    1.0000 </r>
       <r>   -9.0587    1.0000 </r>
       <r>   -8.8267    1.0000 </r>
       <r>   -7.6234    1.0000 </r>
       <r>   -6.1989    1.0000 </r>
       <r>   -3.8335    0.0000 </r>
       <r>   -2.8373    0.0000 </r>
       <r>   -2.6933    0.0000 </r>
       <r>   -1.2149    0.0000 </r>
       <r>    1.4612    0.0000 </r>
       <r>    2.5209    0.0000 </r>
       <r>    3.5150    0.0000 </r>
       <r>    4.2524    0.0000 </r>
       <r>    4.7999    0.0000 </r>
       <r>    5.6231    0.0000 </r>
       <r>    5.8543    0.0000 </r>
       <r>    6.1989    0.0000 </r>
      </set>
      <set comment="kpoint 57">
       <r>  -40.9989    1.0000 </r>
       <r>  -40.8911    1.0000 </r>
       <r>  -40.8162    1.0000 </r>
       <r>  -18.0135    1.0000 </r>
       <r>  -17.5994    1.0000 </r>
       <r>  -11.0976    1.0000 </r>
       <r>  -10.7485    1.0000 </r>
       <r>   -9.6626    1.0000 </r>
       <r>   -9.0709    1.0000 </r>
       <r>   -8.8041    1.0000 </r>
       <r>   -7.7683    1.0000 </r>
       <r>   -6.0517    1.0000 </r>
       <r>   -3.9792    0.0000 </r>
       <r>   -2.7046    0.0000 </r>
       <r>   -2.5918    0.0000 </r>
       <r>   -1.1661    0.0000 </r>
       <r>    1.2157    0.0000 </r>
       <r>    2.4192    0.0000 </r>
       <r>    3.7247    0.0000 </r>
       <r>    4.4600    0.0000 </r>
       <r>    4.9796    0.0000 </r>
       <r>    5.8225    0.0000 </r>
       <r>    5.9421    0.0000 </r>
       <r>    6.3425    0.0000 </r>
      </set>
      <set comment="kpoint 58">
       <r>  -40.9987    1.0000 </r>
       <r>  -40.8964    1.0000 </r>
       <r>  -40.8153    1.0000 </r>
       <r>  -17.9902    1.0000 </r>
       <r>  -17.5812    1.0000 </r>
       <r>  -11.1339    1.0000 </r>
       <r>  -10.7207    1.0000 </r>
       <r>   -9.7357    1.0000 </r>
       <r>   -9.0741    1.0000 </r>
       <r>   -8.7762    1.0000 </r>
       <r>   -7.8272    1.0000 </r>
       <r>   -5.9892    1.0000 </r>
       <r>   -4.0431    0.0000 </r>
       <r>   -2.6901    0.0000 </r>
       <r>   -2.5165    0.0000 </r>
       <r>   -1.1486    0.0000 </r>
       <r>    1.1165    0.0000 </r>
       <r>    2.3912    0.0000 </r>
       <r>    3.8158    0.0000 </r>
       <r>    4.5423    0.0000 </r>
       <r>    5.0406    0.0000 </r>
       <r>    5.8095    0.0000 </r>
       <r>    5.9760    0.0000 </r>
       <r>    6.3518    0.0000 </r>
      </set>
      <set comment="kpoint 59">
       <r>  -40.9910    1.0000 </r>
       <r>  -40.9010    1.0000 </r>
       <r>  -40.8159    1.0000 </r>
       <r>  -18.0058    1.0000 </r>
       <r>  -17.5924    1.0000 </r>
       <r>  -11.1088    1.0000 </r>
       <r>  -10.6814    1.0000 </r>
       <r>   -9.5774    1.0000 </r>
       <r>   -9.2721    1.0000 </r>
       <r>   -8.7922    1.0000 </r>
       <r>   -7.7841    1.0000 </r>
       <r>   -6.0346    1.0000 </r>
       <r>   -4.0162    0.0000 </r>
       <r>   -2.7462    0.0000 </r>
       <r>   -2.5618    0.0000 </r>
       <r>   -1.1193    0.0000 </r>
       <r>    1.3764    0.0000 </r>
       <r>    2.1893    0.0000 </r>
       <r>    3.7520    0.0000 </r>
       <r>    4.5615    0.0000 </r>
       <r>    5.2092    0.0000 </r>
       <r>    5.9285    0.0000 </r>
       <r>    6.1520    0.0000 </r>
       <r>    6.3721    0.0000 </r>
      </set>
      <set comment="kpoint 60">
       <r>  -40.9832    1.0000 </r>
       <r>  -40.9177    1.0000 </r>
       <r>  -40.8144    1.0000 </r>
       <r>  -17.9665    1.0000 </r>
       <r>  -17.5608    1.0000 </r>
       <r>  -11.1788    1.0000 </r>
       <r>  -10.5489    1.0000 </r>
       <r>   -9.7416    1.0000 </r>
       <r>   -9.3438    1.0000 </r>
       <r>   -8.7176    1.0000 </r>
       <r>   -7.8958    1.0000 </r>
       <r>   -5.9184    1.0000 </r>
[...]
       <r>     4.8479     1.4778    22.4333 </r>
       <r>     4.8583     1.4094    22.4480 </r>
       <r>     4.8688     1.3318    22.4620 </r>
       <r>     4.8793     1.2663    22.4752 </r>
       <r>     4.8897     1.2268    22.4881 </r>
       <r>     4.9002     1.2173    22.5008 </r>
       <r>     4.9107     1.2332    22.5137 </r>
       <r>     4.9212     1.2648    22.5270 </r>
       <r>     4.9316     1.3003    22.5406 </r>
       <r>     4.9421     1.3270    22.5545 </r>
       <r>     4.9526     1.3341    22.5685 </r>
       <r>     4.9630     1.3157    22.5822 </r>
       <r>     4.9735     1.2749    22.5956 </r>
       <r>     4.9840     1.2253    22.6084 </r>
       <r>     4.9945     1.1875    22.6209 </r>
       <r>     5.0049     1.1808    22.6332 </r>
       <r>     5.0154     1.2144    22.6459 </r>
       <r>     5.0259     1.2817    22.6594 </r>
       <r>     5.0363     1.3621    22.6736 </r>
       <r>     5.0468     1.4288    22.6886 </r>
       <r>     5.0573     1.4598    22.7039 </r>
       <r>     5.0678     1.4466    22.7190 </r>
       <r>     5.0782     1.3956    22.7336 </r>
       <r>     5.0887     1.3242    22.7475 </r>
       <r>     5.0992     1.2526    22.7606 </r>
       <r>     5.1097     1.1977    22.7732 </r>
       <r>     5.1201     1.1694    22.7854 </r>
       <r>     5.1306     1.1706    22.7977 </r>
       <r>     5.1411     1.1994    22.8102 </r>
       <r>     5.1515     1.2502    22.8233 </r>
       <r>     5.1620     1.3147    22.8371 </r>
       <r>     5.1725     1.3816    22.8516 </r>
       <r>     5.1830     1.4370    22.8666 </r>
       <r>     5.1934     1.4666    22.8820 </r>
       <r>     5.2039     1.4589    22.8972 </r>
       <r>     5.2144     1.4106    22.9120 </r>
       <r>     5.2248     1.3291    22.9259 </r>
       <r>     5.2353     1.2324    22.9388 </r>
       <r>     5.2458     1.1442    22.9508 </r>
       <r>     5.2563     1.0858    22.9622 </r>
       <r>     5.2667     1.0690    22.9734 </r>
       <r>     5.2772     1.0913    22.9848 </r>
       <r>     5.2877     1.1366    22.9967 </r>
       <r>     5.2981     1.1800    23.0091 </r>
       <r>     5.3086     1.1972    23.0216 </r>
       <r>     5.3191     1.1735    23.0339 </r>
       <r>     5.3296     1.1098    23.0455 </r>
       <r>     5.3400     1.0241    23.0562 </r>
       <r>     5.3505     0.9454    23.0661 </r>
       <r>     5.3610     0.9039    23.0756 </r>
       <r>     5.3715     0.9207    23.0853 </r>
       <r>     5.3819     1.0005    23.0957 </r>
       <r>     5.3924     1.1309    23.1076 </r>
       <r>     5.4029     1.2882    23.1211 </r>
       <r>     5.4133     1.4469    23.1362 </r>
       <r>     5.4238     1.5888    23.1529 </r>
       <r>     5.4343     1.7072    23.1707 </r>
       <r>     5.4448     1.8054    23.1896 </r>
       <r>     5.4552     1.8890    23.2094 </r>
       <r>     5.4657     1.9586    23.2299 </r>
       <r>     5.4762     2.0050    23.2509 </r>
       <r>     5.4866     2.0106    23.2720 </r>
       <r>     5.4971     1.9566    23.2925 </r>
       <r>     5.5076     1.8316    23.3117 </r>
       <r>     5.5181     1.6390    23.3288 </r>
       <r>     5.5285     1.3991    23.3435 </r>
       <r>     5.5390     1.1451    23.3555 </r>
       <r>     5.5495     0.9149    23.3650 </r>
       <r>     5.5599     0.7414    23.3728 </r>
       <r>     5.5704     0.6452    23.3796 </r>
       <r>     5.5809     0.6313    23.3862 </r>
       <r>     5.5914     0.6892    23.3934 </r>
       <r>     5.6018     0.7967    23.4017 </r>
       <r>     5.6123     0.9237    23.4114 </r>
       <r>     5.6228     1.0383    23.4223 </r>
       <r>     5.6333     1.1125    23.4339 </r>
       <r>     5.6437     1.1286    23.4457 </r>
       <r>     5.6542     1.0831    23.4571 </r>
       <r>     5.6647     0.9875    23.4674 </r>
       <r>     5.6751     0.8642    23.4765 </r>
       <r>     5.6856     0.7396    23.4842 </r>
       <r>     5.6961     0.6358    23.4909 </r>
       <r>     5.7066     0.5656    23.4968 </r>
       <r>     5.7170     0.5323    23.5024 </r>
       <r>     5.7275     0.5333    23.5080 </r>
       <r>     5.7380     0.5642    23.5139 </r>
       <r>     5.7484     0.6227    23.5204 </r>
       <r>     5.7589     0.7082    23.5278 </r>
       <r>     5.7694     0.8185    23.5364 </r>
       <r>     5.7799     0.9467    23.5463 </r>
       <r>     5.7903     1.0791    23.5576 </r>
       <r>     5.8008     1.1971    23.5701 </r>
       <r>     5.8113     1.2822    23.5836 </r>
       <r>     5.8217     1.3220    23.5974 </r>
       <r>     5.8322     1.3143    23.6112 </r>
       <r>     5.8427     1.2677    23.6244 </r>
       <r>     5.8532     1.1973    23.6370 </r>
       <r>     5.8636     1.1202    23.6487 </r>
       <r>     5.8741     1.0497    23.6597 </r>
       <r>     5.8846     0.9931    23.6701 </r>
       <r>     5.8951     0.9515    23.6801 </r>
       <r>     5.9055     0.9208    23.6897 </r>
       <r>     5.9160     0.8946    23.6991 </r>
       <r>     5.9265     0.8665    23.7082 </r>
       <r>     5.9369     0.8329    23.7169 </r>
       <r>     5.9474     0.7932    23.7252 </r>
       <r>     5.9579     0.7489    23.7330 </r>
       <r>     5.9684     0.7016    23.7404 </r>
       <r>     5.9788     0.6513    23.7472 </r>
       <r>     5.9893     0.5964    23.7534 </r>
       <r>     5.9998     0.5357    23.7590 </r>
       <r>     6.0102     0.4701    23.7640 </r>
       <r>     6.0207     0.4049    23.7682 </r>
       <r>     6.0312     0.3480    23.7719 </r>
       <r>     6.0417     0.3083    23.7751 </r>
       <r>     6.0521     0.2937    23.7782 </r>
       <r>     6.0626     0.3095    23.7814 </r>
       <r>     6.0731     0.3580    23.7852 </r>
       <r>     6.0835     0.4372    23.7897 </r>
       <r>     6.0940     0.5395    23.7954 </r>
       <r>     6.1045     0.6504    23.8022 </r>
       <r>     6.1150     0.7504    23.8100 </r>
       <r>     6.1254     0.8199    23.8186 </r>
       <r>     6.1359     0.8459    23.8275 </r>
       <r>     6.1464     0.8271    23.8362 </r>
       <r>     6.1569     0.7739    23.8443 </r>
       <r>     6.1673     0.7035    23.8516 </r>
       <r>     6.1778     0.6328    23.8583 </r>
       <r>     6.1883     0.5719    23.8642 </r>
       <r>     6.1987     0.5235    23.8697 </r>
       <r>     6.2092     0.4858    23.8748 </r>
       <r>     6.2197     0.4575    23.8796 </r>
       <r>     6.2302     0.4406    23.8842 </r>
       <r>     6.2406     0.4396    23.8888 </r>
       <r>     6.2511     0.4577    23.8936 </r>
       <r>     6.2616     0.4929    23.8988 </r>
       <r>     6.2720     0.5371    23.9044 </r>
       <r>     6.2825     0.5795    23.9105 </r>
       <r>     6.2930     0.6112    23.9169 </r>
       <r>     6.3035     0.6286    23.9235 </r>
       <r>     6.3139     0.6334    23.9301 </r>
       <r>     6.3244     0.6290    23.9367 </r>
       <r>     6.3349     0.6172    23.9431 </r>
       <r>     6.3453     0.5961    23.9494 </r>
       <r>     6.3558     0.5626    23.9553 </r>
       <r>     6.3663     0.5157    23.9607 </r>
       <r>     6.3768     0.4591    23.9655 </r>
       <r>     6.3872     0.4010    23.9697 </r>
       <r>     6.3977     0.3509    23.9734 </r>
       <r>     6.4082     0.3151    23.9767 </r>
       <r>     6.4187     0.2943    23.9797 </r>
       <r>     6.4291     0.2830    23.9827 </r>
       <r>     6.4396     0.2728    23.9856 </r>
       <r>     6.4501     0.2557    23.9882 </r>
       <r>     6.4605     0.2285    23.9906 </r>
       <r>     6.4710     0.1927    23.9926 </r>
       <r>     6.4815     0.1537    23.9943 </r>
       <r>     6.4920     0.1178    23.9955 </r>
       <r>     6.5024     0.0895    23.9964 </r>
       <r>     6.5129     0.0699    23.9972 </r>
       <r>     6.5234     0.0575    23.9978 </r>
       <r>     6.5338     0.0495    23.9983 </r>
       <r>     6.5443     0.0430    23.9987 </r>
       <r>     6.5548     0.0363    23.9991 </r>
       <r>     6.5653     0.0290    23.9994 </r>
       <r>     6.5757     0.0216    23.9996 </r>
       <r>     6.5862     0.0148    23.9998 </r>
       <r>     6.5967     0.0094    23.9999 </r>
       <r>     6.6072     0.0054    23.9999 </r>
       <r>     6.6176     0.0029    24.0000 </r>
       <r>     6.6281     0.0014    24.0000 </r>
       <r>     6.6386     0.0006    24.0000 </r>
       <r>     6.6490     0.0003    24.0000 </r>
       <r>     6.6595     0.0001    24.0000 </r>
       <r>     6.6700     0.0000    24.0000 </r>
       <r>     6.6805     0.0000    24.0000 </r>
       <r>     6.6909     0.0000    24.0000 </r>
       <r>     6.7014     0.0000    24.0000 </r>
       <r>     6.7119     0.0000    24.0000 </r>
       <r>     6.7223     0.0000    24.0000 </r>
       <r>     6.7328     0.0000    24.0000 </r>
       <r>     6.7433     0.0000    24.0000 </r>
       <r>     6.7538     0.0000    24.0000 </r>
       <r>     6.7642     0.0000    24.0000 </r>
       <r>     6.7747     0.0000    24.0000 </r>
       <r>     6.7852     0.0000    24.0000 </r>
       <r>     6.7956     0.0000    24.0000 </r>
       <r>     6.8061     0.0000    24.0000 </r>
       <r>     6.8166     0.0000    24.0000 </r>
       <r>     6.8271     0.0000    24.0000 </r>
       <r>     6.8375     0.0000    24.0000 </r>
       <r>     6.8480     0.0000    24.0000 </r>
       <r>     6.8585     0.0000    24.0000 </r>
       <r>     6.8690     0.0000    24.0000 </r>
       <r>     6.8794     0.0000    24.0000 </r>
       <r>     6.8899     0.0000    24.0000 </r>
       <r>     6.9004     0.0000    24.0000 </r>
       <r>     6.9108     0.0000    24.0000 </r>
       <r>     6.9213     0.0000    24.0000 </r>
       <r>     6.9318     0.0000    24.0000 </r>
       <r>     6.9423     0.0000    24.0000 </r>
       <r>     6.9527     0.0000    24.0000 </r>
       <r>     6.9632     0.0000    24.0000 </r>
       <r>     6.9737     0.0000    24.0000 </r>
       <r>     6.9841     0.0000    24.0000 </r>
       <r>     6.9946     0.0000    24.0000 </r>
       <r>     7.0051     0.0000    24.0000 </r>
       <r>     7.0156     0.0000    24.0000 </r>
       <r>     7.0260     0.0000    24.0000 </r>
       <r>     7.0365     0.0000    24.0000 </r>
       <r>     7.0470     0.0000    24.0000 </r>
       <r>     7.0574     0.0000    24.0000 </r>
       <r>     7.0679     0.0000    24.0000 </r>
       <r>     7.0784     0.0000    24.0000 </r>
       <r>     7.0889     0.0000    24.0000 </r>
       <r>     7.0993     0.0000    24.0000 </r>
       <r>     7.1098     0.0000    24.0000 </r>
       <r>     7.1203     0.0000    24.0000 </r>
       <r>     7.1308     0.0000    24.0000 </r>
       <r>     7.1412     0.0000    24.0000 </r>
       <r>     7.1517     0.0000    24.0000 </r>
       <r>     7.1622     0.0000    24.0000 </r>
       <r>     7.1726     0.0000    24.0000 </r>
       <r>     7.1831     0.0000    24.0000 </r>
       <r>     7.1936     0.0000    24.0000 </r>
       <r>     7.2041     0.0000    24.0000 </r>
       <r>     7.2145     0.0000    24.0000 </r>
       <r>     7.2250     0.0000    24.0000 </r>
       <r>     7.2355     0.0000    24.0000 </r>
       <r>     7.2459     0.0000    24.0000 </r>
       <r>     7.2564     0.0000    24.0000 </r>
       <r>     7.2669     0.0000    24.0000 </r>
       <r>     7.2774     0.0000    24.0000 </r>
       <r>     7.2878     0.0000    24.0000 </r>
       <r>     7.2983     0.0000    24.0000 </r>
       <r>     7.3088     0.0000    24.0000 </r>
       <r>     7.3192     0.0000    24.0000 </r>
       <r>     7.3297     0.0000    24.0000 </r>
       <r>     7.3402     0.0000    24.0000 </r>
       <r>     7.3507     0.0000    24.0000 </r>
       <r>     7.3611     0.0000    24.0000 </r>
       <r>     7.3716     0.0000    24.0000 </r>
       <r>     7.3821     0.0000    24.0000 </r>
       <r>     7.3926     0.0000    24.0000 </r>
       <r>     7.4030     0.0000    24.0000 </r>
       <r>     7.4135     0.0000    24.0000 </r>
       <r>     7.4240     0.0000    24.0000 </r>
       <r>     7.4344     0.0000    24.0000 </r>
       <r>     7.4449     0.0000    24.0000 </r>
       <r>     7.4554     0.0000    24.0000 </r>
       <r>     7.4659     0.0000    24.0000 </r>
       <r>     7.4763     0.0000    24.0000 </r>
       <r>     7.4868     0.0000    24.0000 </r>
       <r>     7.4973     0.0000    24.0000 </r>
       <r>     7.5077     0.0000    24.0000 </r>
       <r>     7.5182     0.0000    24.0000 </r>
       <r>     7.5287     0.0000    24.0000 </r>
       <r>     7.5392     0.0000    24.0000 </r>
       <r>     7.5496     0.0000    24.0000 </r>
       <r>     7.5601     0.0000    24.0000 </r>
       <r>     7.5706     0.0000    24.0000 </r>
       <r>     7.5810     0.0000    24.0000 </r>
       <r>     7.5915     0.0000    24.0000 </r>
       <r>     7.6020     0.0000    24.0000 </r>
       <r>     7.6125     0.0000    24.0000 </r>
       <r>     7.6229     0.0000    24.0000 </r>
       <r>     7.6334     0.0000    24.0000 </r>
       <r>     7.6439     0.0000    24.0000 </r>
       <r>     7.6544     0.0000    24.0000 </r>
       <r>     7.6648     0.0000    24.0000 </r>
       <r>     7.6753     0.0000    24.0000 </r>
       <r>     7.6858     0.0000    24.0000 </r>
       <r>     7.6962     0.0000    24.0000 </r>
       <r>     7.7067     0.0000    24.0000 </r>
       <r>     7.7172     0.0000    24.0000 </r>
       <r>     7.7277     0.0000    24.0000 </r>
       <r>     7.7381     0.0000    24.0000 </r>
       <r>     7.7486     0.0000    24.0000 </r>
       <r>     7.7591     0.0000    24.0000 </r>
       <r>     7.7695     0.0000    24.0000 </r>
       <r>     7.7800     0.0000    24.0000 </r>
       <r>     7.7905     0.0000    24.0000 </r>
       <r>     7.8010     0.0000    24.0000 </r>
       <r>     7.8114     0.0000    24.0000 </r>
       <r>     7.8219     0.0000    24.0000 </r>
       <r>     7.8324     0.0000    24.0000 </r>
       <r>     7.8428     0.0000    24.0000 </r>
       <r>     7.8533     0.0000    24.0000 </r>
       <r>     7.8638     0.0000    24.0000 </r>
       <r>     7.8743     0.0000    24.0000 </r>
       <r>     7.8847     0.0000    24.0000 </r>
       <r>     7.8952     0.0000    24.0000 </r>
       <r>     7.9057     0.0000    24.0000 </r>
       <r>     7.9162     0.0000    24.0000 </r>
       <r>     7.9266     0.0000    24.0000 </r>
       <r>     7.9371     0.0000    24.0000 </r>
       <r>     7.9476     0.0000    24.0000 </r>
       <r>     7.9580     0.0000    24.0000 </r>
       <r>     7.9685     0.0000    24.0000 </r>
       <r>     7.9790     0.0000    24.0000 </r>
       <r>     7.9895     0.0000    24.0000 </r>
       <r>     7.9999     0.0000    24.0000 </r>
       <r>     8.0104     0.0000    24.0000 </r>
       <r>     8.0209     0.0000    24.0000 </r>
       <r>     8.0313     0.0000    24.0000 </r>
       <r>     8.0418     0.0000    24.0000 </r>
       <r>     8.0523     0.0000    24.0000 </r>
       <r>     8.0628     0.0000    24.0000 </r>
       <r>     8.0732     0.0000    24.0000 </r>
       <r>     8.0837     0.0000    24.0000 </r>
       <r>     8.0942     0.0000    24.0000 </r>
       <r>     8.1046     0.0000    24.0000 </r>
       <r>     8.1151     0.0000    24.0000 </r>
       <r>     8.1256     0.0000    24.0000 </r>
       <r>     8.1361     0.0000    24.0000 </r>
       <r>     8.1465     0.0000    24.0000 </r>
       <r>     8.1570     0.0000    24.0000 </r>
       <r>     8.1675     0.0000    24.0000 </r>
       <r>     8.1780     0.0000    24.0000 </r>
       <r>     8.1884     0.0000    24.0000 </r>
       <r>     8.1989     0.0000    24.0000 </r>
       <r>     8.2094     0.0000    24.0000 </r>
       <r>     8.2198     0.0000    24.0000 </r>
       <r>     8.2303     0.0000    24.0000 </r>
       <r>     8.2408     0.0000    24.0000 </r>
       <r>     8.2513     0.0000    24.0000 </r>
       <r>     8.2617     0.0000    24.0000 </r>
       <r>     8.2722     0.0000    24.0000 </r>
       <r>     8.2827     0.0000    24.0000 </r>
       <r>     8.2931     0.0000    24.0000 </r>
       <r>     8.3036     0.0000    24.0000 </r>
       <r>     8.3141     0.0000    24.0000 </r>
       <r>     8.3246     0.0000    24.0000 </r>
       <r>     8.3350     0.0000    24.0000 </r>
       <r>     8.3455     0.0000    24.0000 </r>
       <r>     8.3560     0.0000    24.0000 </r>
       <r>     8.3664     0.0000    24.0000 </r>
       <r>     8.3769     0.0000    24.0000 </r>
       <r>     8.3874     0.0000    24.0000 </r>
       <r>     8.3979     0.0000    24.0000 </r>
       <r>     8.4083     0.0000    24.0000 </r>
       <r>     8.4188     0.0000    24.0000 </r>
       <r>     8.4293     0.0000    24.0000 </r>
       <r>     8.4398     0.0000    24.0000 </r>
       <r>     8.4502     0.0000    24.0000 </r>
       <r>     8.4607     0.0000    24.0000 </r>
       <r>     8.4712     0.0000    24.0000 </r>
       <r>     8.4816     0.0000    24.0000 </r>
       <r>     8.4921     0.0000    24.0000 </r>
       <r>     8.5026     0.0000    24.0000 </r>
       <r>     8.5131     0.0000    24.0000 </r>
       <r>     8.5235     0.0000    24.0000 </r>
       <r>     8.5340     0.0000    24.0000 </r>
       <r>     8.5445     0.0000    24.0000 </r>
       <r>     8.5549     0.0000    24.0000 </r>
       <r>     8.5654     0.0000    24.0000 </r>
       <r>     8.5759     0.0000    24.0000 </r>
       <r>     8.5864     0.0000    24.0000 </r>
       <r>     8.5968     0.0000    24.0000 </r>
       <r>     8.6073     0.0000    24.0000 </r>
       <r>     8.6178     0.0000    24.0000 </r>
       <r>     8.6282     0.0000    24.0000 </r>
       <r>     8.6387     0.0000    24.0000 </r>
       <r>     8.6492     0.0000    24.0000 </r>
       <r>     8.6597     0.0000    24.0000 </r>
       <r>     8.6701     0.0000    24.0000 </r>
       <r>     8.6806     0.0000    24.0000 </r>
       <r>     8.6911     0.0000    24.0000 </r>
       <r>     8.7016     0.0000    24.0000 </r>
       <r>     8.7120     0.0000    24.0000 </r>
       <r>     8.7225     0.0000    24.0000 </r>
       <r>     8.7330     0.0000    24.0000 </r>
       <r>     8.7434     0.0000    24.0000 </r>
       <r>     8.7539     0.0000    24.0000 </r>
       <r>     8.7644     0.0000    24.0000 </r>
       <r>     8.7749     0.0000    24.0000 </r>
       <r>     8.7853     0.0000    24.0000 </r>
       <r>     8.7958     0.0000    24.0000 </r>
       <r>     8.8063     0.0000    24.0000 </r>
       <r>     8.8167     0.0000    24.0000 </r>
       <r>     8.8272     0.0000    24.0000 </r>
       <r>     8.8377     0.0000    24.0000 </r>
       <r>     8.8482     0.0000    24.0000 </r>
       <r>     8.8586     0.0000    24.0000 </r>
       <r>     8.8691     0.0000    24.0000 </r>
       <r>     8.8796     0.0000    24.0000 </r>
       <r>     8.8901     0.0000    24.0000 </r>
       <r>     8.9005     0.0000    24.0000 </r>
       <r>     8.9110     0.0000    24.0000 </r>
      </set>
     </set>
    </array>
   </total>
  </dos>
 </calculation>
 <structure name="finalpos" >
  <crystal>
   <varray name="basis" >
    <v>       1.59817141      -2.76811338       0.00000000 </v>
    <v>       1.59817141       2.76811338       0.00000000 </v>
    <v>       0.00000000       0.00000000      34.96267827 </v>
   </varray>
   <i name="volume">    309.34415938 </i>
   <varray name="rec_basis" >
    <v>       0.31285756      -0.18062844       0.00000000 </v>
    <v>       0.31285756       0.18062844       0.00000000 </v>
    <v>       0.00000000       0.00000000       0.02860193 </v>
   </varray>
  </crystal>
  <varray name="positions" >
   <v>       0.66666700       0.33333300       0.10664700 </v>
   <v>       0.33333300       0.66666700       0.06198962 </v>
   <v>       0.33333300       0.66666700       0.15130538 </v>
  </varray>
 </structure>
</modeling>
