<?xml version="1.0" encoding="ISO-8859-1"?>
<modeling>
 <generator>
  <i name="program" type="string">vasp </i>
  <i name="version" type="string">5.4.1  </i>
  <i name="subversion" type="string">05Feb16 (build Feb 01 2017 11:31:40) complex                          parallel </i>
  <i name="platform" type="string">IFC91_ompi </i>
  <i name="date" type="string">2025 10 21 </i>
  <i name="time" type="string">16:03:23 </i>
 </generator>
 <incar>
  <i type="string" name="SYSTEM"> MoS2 monolayer SCF-warm (SOC OFF)</i>
  <i type="int" name="ISTART">     0</i>
  <i type="string" name="PREC">accurate</i>
  <i type="string" name="ALGO"> Normal</i>
  <i type="logical" name="LSORBIT"> F  </i>
  <i type="logical" name="LNONCOLLINEAR"> F  </i>
  <i type="int" name="ISPIN">     2</i>
  <i type="int" name="ICHARG">     2</i>
  <i type="int" name="IBRION">    -1</i>
  <i name="EDIFF">      0.00000010</i>
  <i type="int" name="NSW">     0</i>
  <i type="int" name="ISIF">     2</i>
  <i name="ENCUT">    600.00000000</i>
  <i type="int" name="NEDOS">  5000</i>
  <i type="logical" name="LREAL"> F  </i>
  <i type="int" name="ISMEAR">     0</i>
  <i name="SIGMA">      0.05000000</i>
  <i type="logical" name="LWAVE"> T  </i>
  <i type="logical" name="LCHARG"> T  </i>
  <v type="int" name="KPOINT_BSE">    -1     0     0     0</v>
  <i type="logical" name="LDIPOL"> T  </i>
  <i type="int" name="IDIPOL">     3</i>
  <v name="DIPOL">      0.50000000      0.50000000      0.50000000</v>
 </incar>
 <kpoints>
  <generation param="Gamma">
   <v type="int" name="divisions">      24       24        1 </v>
   <v name="usershift">      0.00000000       0.00000000       0.00000000 </v>
   <v name="genvec1">      0.04166667       0.00000000       0.00000000 </v>
   <v name="genvec2">      0.00000000       0.04166667       0.00000000 </v>
   <v name="genvec3">      0.00000000       0.00000000       1.00000000 </v>
   <v name="shift">      0.00000000       0.00000000       0.00000000 </v>
  </generation>
  <varray name="kpointlist" >
   <v>       0.00000000       0.00000000       0.00000000 </v>
   <v>       0.04166667       0.00000000       0.00000000 </v>
   <v>       0.08333333       0.00000000       0.00000000 </v>
   <v>       0.12500000       0.00000000       0.00000000 </v>
   <v>       0.16666667       0.00000000       0.00000000 </v>
   <v>       0.20833333      -0.00000000       0.00000000 </v>
   <v>       0.25000000       0.00000000       0.00000000 </v>
   <v>       0.29166667       0.00000000       0.00000000 </v>
   <v>       0.33333333       0.00000000       0.00000000 </v>
   <v>       0.37500000       0.00000000       0.00000000 </v>
   <v>       0.41666667      -0.00000000       0.00000000 </v>
   <v>       0.45833333       0.00000000       0.00000000 </v>
   <v>       0.50000000       0.00000000       0.00000000 </v>
   <v>       0.04166667       0.04166667       0.00000000 </v>
   <v>       0.08333333       0.04166667       0.00000000 </v>
   <v>       0.12500000       0.04166667       0.00000000 </v>
   <v>       0.16666667       0.04166667       0.00000000 </v>
   <v>       0.20833333       0.04166667       0.00000000 </v>
   <v>       0.25000000       0.04166667       0.00000000 </v>
   <v>       0.29166667       0.04166667       0.00000000 </v>
   <v>       0.33333333       0.04166667       0.00000000 </v>
   <v>       0.37500000       0.04166667       0.00000000 </v>
   <v>       0.41666667       0.04166667       0.00000000 </v>
   <v>       0.45833333       0.04166667       0.00000000 </v>
   <v>       0.08333333       0.08333333       0.00000000 </v>
   <v>       0.12500000       0.08333333       0.00000000 </v>
   <v>       0.16666667       0.08333333       0.00000000 </v>
   <v>       0.20833333       0.08333333       0.00000000 </v>
   <v>       0.25000000       0.08333333       0.00000000 </v>
   <v>       0.29166667       0.08333333       0.00000000 </v>
   <v>       0.33333333       0.08333333       0.00000000 </v>
   <v>       0.37500000       0.08333333       0.00000000 </v>
   <v>       0.41666667       0.08333333       0.00000000 </v>
   <v>       0.45833333       0.08333333       0.00000000 </v>
   <v>       0.12500000       0.12500000       0.00000000 </v>
   <v>       0.16666667       0.12500000       0.00000000 </v>
   <v>       0.20833333       0.12500000       0.00000000 </v>
   <v>       0.25000000       0.12500000       0.00000000 </v>
   <v>       0.29166667       0.12500000       0.00000000 </v>
   <v>       0.33333333       0.12500000       0.00000000 </v>
   <v>       0.37500000       0.12500000       0.00000000 </v>
   <v>       0.41666667       0.12500000       0.00000000 </v>
   <v>       0.16666667       0.16666667       0.00000000 </v>
   <v>       0.20833333       0.16666667       0.00000000 </v>
   <v>       0.25000000       0.16666667       0.00000000 </v>
   <v>       0.29166667       0.16666667       0.00000000 </v>
   <v>       0.33333333       0.16666667       0.00000000 </v>
   <v>       0.37500000       0.16666667       0.00000000 </v>
   <v>       0.41666667       0.16666667       0.00000000 </v>
   <v>       0.20833333       0.20833333       0.00000000 </v>
   <v>       0.25000000       0.20833333       0.00000000 </v>
   <v>       0.29166667       0.20833333       0.00000000 </v>
   <v>       0.33333333       0.20833333       0.00000000 </v>
   <v>       0.37500000       0.20833333       0.00000000 </v>
   <v>       0.25000000       0.25000000       0.00000000 </v>
   <v>       0.29166667       0.25000000       0.00000000 </v>
   <v>       0.33333333       0.25000000       0.00000000 </v>
   <v>       0.37500000       0.25000000       0.00000000 </v>
   <v>       0.29166667       0.29166667       0.00000000 </v>
   <v>       0.33333333       0.29166667       0.00000000 </v>
   <v>       0.33333333       0.33333333       0.00000000 </v>
  </varray>
  <varray name="weights" >
   <v>       0.00173611 </v>
   <v>       0.01041667 </v>
   <v>       0.01041667 </v>
   <v>       0.01041667 </v>
   <v>       0.01041667 </v>
   <v>       0.01041667 </v>
   <v>       0.01041667 </v>
   <v>       0.01041667 </v>
   <v>       0.01041667 </v>
   <v>       0.01041667 </v>
   <v>       0.01041667 </v>
   <v>       0.01041667 </v>
   <v>       0.00520833 </v>
   <v>       0.01041667 </v>
   <v>       0.02083333 </v>
   <v>       0.02083333 </v>
   <v>       0.02083333 </v>
   <v>       0.02083333 </v>
   <v>       0.02083333 </v>
   <v>       0.02083333 </v>
   <v>       0.02083333 </v>
   <v>       0.02083333 </v>
   <v>       0.02083333 </v>
   <v>       0.02083333 </v>
   <v>       0.01041667 </v>
   <v>       0.02083333 </v>
   <v>       0.02083333 </v>
   <v>       0.02083333 </v>
   <v>       0.02083333 </v>
   <v>       0.02083333 </v>
   <v>       0.02083333 </v>
   <v>       0.02083333 </v>
   <v>       0.02083333 </v>
   <v>       0.01041667 </v>
   <v>       0.01041667 </v>
   <v>       0.02083333 </v>
   <v>       0.02083333 </v>
   <v>       0.02083333 </v>
   <v>       0.02083333 </v>
   <v>       0.02083333 </v>
   <v>       0.02083333 </v>
   <v>       0.02083333 </v>
   <v>       0.01041667 </v>
   <v>       0.02083333 </v>
   <v>       0.02083333 </v>
   <v>       0.02083333 </v>
   <v>       0.02083333 </v>
   <v>       0.02083333 </v>
   <v>       0.01041667 </v>
   <v>       0.01041667 </v>
   <v>       0.02083333 </v>
   <v>       0.02083333 </v>
   <v>       0.02083333 </v>
   <v>       0.02083333 </v>
   <v>       0.01041667 </v>
   <v>       0.02083333 </v>
   <v>       0.02083333 </v>
   <v>       0.01041667 </v>
   <v>       0.01041667 </v>
   <v>       0.02083333 </v>
   <v>       0.00347222 </v>
  </varray>
 </kpoints>
 <parameters>
  <separator name="general" >
   <i type="string" name="SYSTEM">MoS2 monolayer SCF-warm (SOC OFF)</i>
   <i type="logical" name="LCOMPAT"> F  </i>
  </separator>
  <separator name="electronic" >
   <i type="string" name="PREC">accura</i>
   <i name="ENMAX">    600.00000000</i>
   <i name="ENAUG">    392.42700000</i>
   <i name="EDIFF">      0.00000010</i>
   <i type="int" name="IALGO">    38</i>
   <i type="int" name="IWAVPR">    10</i>
   <i type="int" name="NBANDS">    24</i>
   <i name="NELECT">     24.00000000</i>
   <i type="int" name="TURBO">     0</i>
   <i type="int" name="IRESTART">     0</i>
   <i type="int" name="NREBOOT">     0</i>
   <i type="int" name="NMIN">     0</i>
   <i name="EREF">      0.00000000</i>
   <separator name="electronic smearing" >
    <i type="int" name="ISMEAR">     0</i>
    <i name="SIGMA">      0.05000000</i>
    <i name="KSPACING">      0.50000000</i>
    <i type="logical" name="KGAMMA"> T  </i>
   </separator>
   <separator name="electronic projectors" >
    <i type="logical" name="LREAL"> F  </i>
    <v name="ROPT">      0.00000000      0.00000000</v>
    <i type="int" name="LMAXPAW">  -100</i>
    <i type="int" name="LMAXMIX">     2</i>
    <i type="logical" name="NLSPLINE"> F  </i>
   </separator>
   <separator name="electronic startup" >
    <i type="int" name="ISTART">     0</i>
    <i type="int" name="ICHARG">     2</i>
    <i type="int" name="INIWAV">     1</i>
   </separator>
   <separator name="electronic spin" >
    <i type="int" name="ISPIN">     2</i>
    <i type="logical" name="LNONCOLLINEAR"> F  </i>
    <v name="MAGMOM">      1.00000000      1.00000000      1.00000000</v>
    <i name="NUPDOWN">     -1.00000000</i>
    <i type="logical" name="LSORBIT"> F  </i>
    <v name="SAXIS">      0.00000000      0.00000000      1.00000000</v>
    <i type="logical" name="LSPIRAL"> F  </i>
    <v name="QSPIRAL">      0.00000000      0.00000000      0.00000000</v>
    <i type="logical" name="LZEROZ"> F  </i>
   </separator>
   <separator name="electronic exchange-correlation" >
    <i type="logical" name="LASPH"> F  </i>
    <i type="logical" name="LMETAGGA"> F  </i>
   </separator>
   <separator name="electronic convergence" >
    <i type="int" name="NELM">    60</i>
    <i type="int" name="NELMDL">    -5</i>
    <i type="int" name="NELMIN">     2</i>
    <i name="ENINI">    600.00000000</i>
    <separator name="electronic convergence detail" >
     <i type="logical" name="LDIAG"> T  </i>
     <i type="logical" name="LSUBROT"> F  </i>
     <i name="WEIMIN">      0.00000000</i>
     <i name="EBREAK">      0.00000000</i>
     <i name="DEPER">      0.30000000</i>
     <i type="int" name="NRMM">     4</i>
     <i name="TIME">      0.40000000</i>
    </separator>
   </separator>
   <separator name="electronic mixer" >
    <i name="AMIX">      0.40000000</i>
    <i name="BMIX">      1.00000000</i>
    <i name="AMIN">      0.10000000</i>
    <i name="AMIX_MAG">      1.60000000</i>
    <i name="BMIX_MAG">      1.00000000</i>
    <separator name="electronic mixer details" >
     <i type="int" name="IMIX">     4</i>
     <i type="logical" name="MIXFIRST"> F  </i>
     <i type="int" name="MAXMIX">   -45</i>
     <i name="WC">    100.00000000</i>
     <i type="int" name="INIMIX">     1</i>
     <i type="int" name="MIXPRE">     1</i>
     <i type="int" name="MREMOVE">     5</i>
    </separator>
   </separator>
   <separator name="electronic dipolcorrection" >
    <i type="logical" name="LDIPOL"> T  </i>
    <i type="logical" name="LMONO"> F  </i>
    <i type="int" name="IDIPOL">     3</i>
    <i name="EPSILON">      1.00000000</i>
    <v name="DIPOL">      0.50000000      0.50000000      0.50000000</v>
    <i name="EFIELD">      0.00000000</i>
   </separator>
  </separator>
  <separator name="grids" >
   <i type="int" name="NGX">    28</i>
   <i type="int" name="NGY">    28</i>
   <i type="int" name="NGZ">   280</i>
   <i type="int" name="NGXF">    56</i>
   <i type="int" name="NGYF">    56</i>
   <i type="int" name="NGZF">   560</i>
   <i type="logical" name="ADDGRID"> F  </i>
  </separator>
  <separator name="ionic" >
   <i type="int" name="NSW">     0</i>
   <i type="int" name="IBRION">    -1</i>
   <i type="int" name="ISIF">     2</i>
   <i name="PSTRESS">      0.00000000</i>
   <i name="EDIFFG">      0.00000100</i>
   <i type="int" name="NFREE">     0</i>
   <i name="POTIM">      0.50000000</i>
   <i name="SMASS">     -3.00000000</i>
   <i name="SCALEE">      1.00000000</i>
  </separator>
  <separator name="ionic md" >
   <i name="TEBEG">      0.00010000</i>
   <i name="TEEND">      0.00010000</i>
   <i type="int" name="NBLOCK">     1</i>
   <i type="int" name="KBLOCK">     1</i>
   <i type="int" name="NPACO">   256</i>
   <i name="APACO">     16.00000000</i>
  </separator>
  <separator name="symmetry" >
   <i type="int" name="ISYM">     2</i>
   <i name="SYMPREC">      0.00001000</i>
  </separator>
  <separator name="dos" >
   <i type="logical" name="LORBIT"> F  </i>
   <v name="RWIGS">     -1.00000000     -1.00000000</v>
   <i type="int" name="NEDOS">  5000</i>
   <i name="EMIN">     10.00000000</i>
   <i name="EMAX">    -10.00000000</i>
   <i name="EFERMI">      0.00000000</i>
  </separator>
  <separator name="writing" >
   <i type="int" name="NWRITE">     2</i>
   <i type="logical" name="LWAVE"> T  </i>
   <i type="logical" name="LCHARG"> T  </i>
   <i type="logical" name="LPARD"> F  </i>
   <i type="logical" name="LVTOT"> F  </i>
   <i type="logical" name="LVHAR"> F  </i>
   <i type="logical" name="LELF"> F  </i>
   <i type="logical" name="LOPTICS"> F  </i>
   <v name="STM">      0.00000000      0.00000000      0.00000000      0.00000000      0.00000000      0.00000000      0.00000000</v>
  </separator>
  <separator name="performance" >
   <i type="int" name="NPAR">     8</i>
   <i type="int" name="NSIM">     4</i>
   <i type="int" name="NBLK">    -1</i>
   <i type="logical" name="LPLANE"> T  </i>
   <i type="logical" name="LSCALAPACK"> T  </i>
   <i type="logical" name="LSCAAWARE"> F  </i>
   <i type="logical" name="LSCALU"> F  </i>
   <i type="logical" name="LASYNC"> F  </i>
   <i type="logical" name="LORBITALREAL"> F  </i>
  </separator>
  <separator name="miscellaneous" >
   <i type="int" name="IDIOT">     3</i>
   <i type="logical" name="LMUSIC"> F  </i>
   <v name="POMASS">     95.94000000     32.06600000</v>
   <v name="DARWINR">      0.00000000      0.00000000</v>
   <v name="DARWINV">      1.00000000      1.00000000</v>
   <i type="logical" name="LCORR"> T  </i>
  </separator>
  <i type="logical" name="GGA_COMPAT"> T  </i>
  <i type="logical" name="LBERRY"> F  </i>
  <i type="int" name="ICORELEVEL">     0</i>
  <i type="logical" name="LDAU"> F  </i>
  <i type="int" name="I_CONSTRAINED_M">     0</i>
  <separator name="electronic exchange-correlation" >
   <i type="string" name="GGA">--</i>
   <i type="int" name="VOSKOWN">     0</i>
   <i type="logical" name="LHFCALC"> F  </i>
   <i type="string" name="PRECFOCK"></i>
   <i type="logical" name="LSYMGRAD"> F  </i>
   <i type="logical" name="LHFONE"> F  </i>
   <i type="logical" name="LRHFCALC"> F  </i>
   <i type="logical" name="LTHOMAS"> F  </i>
   <i type="logical" name="LMODELHF"> F  </i>
   <i name="ENCUT4O">     -1.00000000</i>
   <i type="int" name="EXXOEP">     0</i>
   <i type="int" name="FOURORBIT">     0</i>
   <i name="AEXX">      0.00000000</i>
   <i name="HFALPHA">      0.00000000</i>
   <i name="MCALPHA">      0.00000000</i>
   <i name="ALDAX">      1.00000000</i>
   <i name="AGGAX">      1.00000000</i>
   <i name="ALDAC">      1.00000000</i>
   <i name="AGGAC">      1.00000000</i>
   <i type="int" name="NKREDX">     1</i>
   <i type="int" name="NKREDY">     1</i>
   <i type="int" name="NKREDZ">     1</i>
   <i type="logical" name="SHIFTRED"> F  </i>
   <i type="logical" name="ODDONLY"> F  </i>
   <i type="logical" name="EVENONLY"> F  </i>
   <i type="int" name="LMAXFOCK">     0</i>
   <i type="int" name="NMAXFOCKAE">     0</i>
   <i type="logical" name="LFOCKAEDFT"> F  </i>
   <i name="HFSCREEN">      0.00000000</i>
   <i name="HFSCREENC">      0.00000000</i>
   <i type="int" name="NBANDSGWLOW">     0</i>
  </separator>
  <separator name="vdW DFT" >
   <i type="logical" name="LUSE_VDW"> F  </i>
   <i name="Zab_VDW">     -0.84910000</i>
   <i name="PARAM1">      0.12340000</i>
   <i name="PARAM2">      1.00000000</i>
   <i name="PARAM3">      0.00000000</i>
  </separator>
  <separator name="model GW" >
   <i type="int" name="MODEL_GW">     0</i>
   <i name="MODEL_EPS0">     61.86883188</i>
   <i name="MODEL_ALPHA">      1.00000000</i>
  </separator>
  <separator name="linear response parameters" >
   <i type="logical" name="LEPSILON"> F  </i>
   <i type="logical" name="LRPA"> F  </i>
   <i type="logical" name="LNABLA"> F  </i>
   <i type="logical" name="LVEL"> F  </i>
   <i type="int" name="KINTER">     0</i>
   <i name="CSHIFT">      0.10000000</i>
   <i name="OMEGAMAX">     -1.00000000</i>
   <i name="DEG_THRESHOLD">      0.00200000</i>
  </separator>
  <separator name="orbital magnetization" >
   <i type="logical" name="NUCIND"> F  </i>
   <v name="MAGPOS">      0.00000000      0.00000000      0.00000000</v>
   <i type="logical" name="LNICSALL"> T  </i>
   <i type="logical" name="ORBITALMAG"> F  </i>
   <i type="logical" name="LMAGBLOCH"> F  </i>
   <i type="logical" name="LCHIMAG"> F  </i>
   <i type="logical" name="LGAUGE"> T  </i>
   <i type="int" name="MAGATOM">     0</i>
   <v name="MAGDIPOL">      0.00000000      0.00000000      0.00000000</v>
   <v name="AVECCONST">      0.00000000      0.00000000      0.00000000</v>
  </separator>
  <separator name="response functions" >
   <i type="logical" name="LADDER"> F  </i>
   <i type="logical" name="LFXC"> F  </i>
   <i type="logical" name="LHARTREE"> T  </i>
   <i type="int" name="IBSE">     0</i>
   <v type="int" name="KPOINT">    -1     0     0     0</v>
   <i type="logical" name="LTCTE"> F  </i>
   <i type="logical" name="LTETE"> F  </i>
   <i type="logical" name="LTRIPLET"> F  </i>
   <i type="logical" name="LFXCEPS"> F  </i>
   <i type="logical" name="LFXHEG"> F  </i>
   <i type="int" name="NATURALO">     0</i>
   <i type="logical" name="L2ORDER"> F  </i>
   <i type="logical" name="LUSEW"> F  </i>
   <i name="ENCUTGW">     -2.00000000</i>
   <i name="ENCUTGWSOFT">     -2.00000000</i>
   <i name="ENCUTLF">     -1.00000000</i>
   <i type="int" name="LMAXMP2">    -1</i>
   <i name="SCISSOR">      0.00000000</i>
   <i type="int" name="NOMEGA">     0</i>
   <i type="int" name="NOMEGAR">     0</i>
   <i type="int" name="NBANDSGW">    -1</i>
   <i type="int" name="NBANDSO">    -1</i>
   <i type="int" name="NBANDSV">    -1</i>
   <i type="int" name="NELM">     1</i>
   <i type="int" name="NELMHF">     1</i>
   <i type="int" name="DIM">     3</i>
   <i type="int" name="ANTIRES">     0</i>
   <i name="OMEGAMAX">    -30.00000000</i>
   <i name="OMEGAMIN">    -30.00000000</i>
   <i name="OMEGATL">   -200.00000000</i>
   <i type="int" name="OMEGAGRID">     0</i>
   <i name="CSHIFT">     -0.10000000</i>
   <i type="logical" name="SELFENERGY"> F  </i>
   <i type="logical" name="LSPECTRAL"> F  </i>
   <i type="logical" name="LSPECTRALGW"> F  </i>
   <i type="logical" name="LSINGLES"> F  </i>
   <i type="logical" name="LFERMIGW"> F  </i>
   <i type="logical" name="ODDONLYGW"> F  </i>
   <i type="logical" name="EVENONLYGW"> F  </i>
   <i type="int" name="NKREDLFX">     1</i>
   <i type="int" name="NKREDLFY">     1</i>
   <i type="int" name="NKREDLFZ">     1</i>
   <i type="int" name="MAXMEM">  1800</i>
   <i type="int" name="TELESCOPE">     0</i>
   <i type="int" name="TAUPAR">     1</i>
   <i type="int" name="OMEGAPAR">    -1</i>
   <i name="LAMBDA">      1.00000000</i>
  </separator>
  <separator name="External order field" >
   <i name="OFIELD_KAPPA">      0.00000000</i>
   <v name="OFIELD_K">      0.00000000      0.00000000      0.00000000</v>
   <i name="OFIELD_Q6_NEAR">      0.00000000</i>
   <i name="OFIELD_Q6_FAR">      0.00000000</i>
   <i name="OFIELD_A">      0.00000000</i>
  </separator>
  <separator name="solvation model" >
   <i type="logical" name="LSOL"> F  </i>
  </separator>
 </parameters>
 <atominfo>
  <atoms>       3 </atoms>
  <types>       2 </types>
  <array name="atoms" >
   <dimension dim="1">ion</dimension>
   <field type="string">element</field>
   <field type="int">atomtype</field>
   <set>
    <rc><c>Mo</c><c>   1</c></rc>
    <rc><c>S </c><c>   2</c></rc>
    <rc><c>S </c><c>   2</c></rc>
   </set>
  </array>
  <array name="atomtypes" >
   <dimension dim="1">type</dimension>
   <field type="int">atomspertype</field>
   <field type="string">element</field>
   <field>mass</field>
   <field>valence</field>
   <field type="string">pseudopotential</field>
   <set>
    <rc><c>   1</c><c>Mo</c><c>     95.94000000</c><c>     12.00000000</c><c> PAW_PBE Mo_pv 08Apr2002                </c></rc>
    <rc><c>   2</c><c>S </c><c>     32.06600000</c><c>      6.00000000</c><c>  PAW_PBE S 17Jan2003                   </c></rc>
   </set>
  </array>
 </atominfo>
 <structure name="initialpos" >
  <crystal>
   <varray name="basis" >
    <v>       1.59817141      -2.76811338       0.00000000 </v>
    <v>       1.59817141       2.76811338       0.00000000 </v>
    <v>       0.00000000       0.00000000      34.96267827 </v>
   </varray>
   <i name="volume">    309.34415938 </i>
   <varray name="rec_basis" >
    <v>       0.31285756      -0.18062844       0.00000000 </v>
    <v>       0.31285756       0.18062844       0.00000000 </v>
    <v>       0.00000000       0.00000000       0.02860193 </v>
   </varray>
  </crystal>
  <varray name="positions" >
   <v>       0.66666700       0.33333300       0.10664700 </v>
   <v>       0.33333300       0.66666700       0.06198962 </v>
   <v>       0.33333300       0.66666700       0.15130538 </v>
  </varray>
 </structure>
 <calculation>
  <scstep>
   <time name="dav">   14.28   14.28</time>
   <time name="total">   14.54   14.54</time>
   <dipole>
    <v name="dipole">      0.00000000       0.00000000       0.42979289 </v>
    <i name="Tr[quadrupol]">    -54.92729326 </i>
    <i name="Echarged">      0.00000000 </i>
    <i name="Edipol_quadrupol">      0.00000000 </i>
    <i name="Eion">      0.00000000 </i>
   </dipole>
   <energy>
    <i name="alphaZ">    100.09635196 </i>
    <i name="ewald">  11816.21891409 </i>
    <i name="hartreedc"> -13380.95467617 </i>
    <i name="XCdc">     62.50299205 </i>
    <i name="pawpsdc">   1093.95511141 </i>
    <i name="pawaedc">  -1068.01160938 </i>
    <i name="eentropy">     -0.00265149 </i>
    <i name="bandstr">   -289.20605740 </i>
    <i name="atom">   1837.94417650 </i>
    <i name="e_fr_energy">    172.54255158 </i>
    <i name="e_wo_entrp">    172.54520306 </i>
    <i name="e_0_energy">    172.54387732 </i>
   </energy>
  </scstep>
  <scstep>
   <time name="dav">   18.12   18.42</time>
   <time name="total">   18.12   18.43</time>
   <dipole>
    <v name="dipole">      0.00000000       0.00000000       0.42979289 </v>
    <i name="Tr[quadrupol]">    -54.92729326 </i>
    <i name="Echarged">      0.00000000 </i>
    <i name="Edipol_quadrupol">      0.00000000 </i>
    <i name="Eion">      0.00000000 </i>
   </dipole>
   <energy>
    <i name="e_fr_energy">     -4.14386930 </i>
    <i name="e_wo_entrp">     -4.14386930 </i>
    <i name="e_0_energy">     -4.14386930 </i>
   </energy>
  </scstep>
  <scstep>
   <time name="dav">   17.10   17.11</time>
   <time name="total">   17.11   17.12</time>
   <dipole>
    <v name="dipole">      0.00000000       0.00000000       0.42979289 </v>
    <i name="Tr[quadrupol]">    -54.92729326 </i>
    <i name="Echarged">      0.00000000 </i>
    <i name="Edipol_quadrupol">      0.00000000 </i>
    <i name="Eion">      0.00000000 </i>
   </dipole>
   <energy>
    <i name="e_fr_energy">    -22.15887730 </i>
    <i name="e_wo_entrp">    -22.15887730 </i>
    <i name="e_0_energy">    -22.15887730 </i>
   </energy>
  </scstep>
  <scstep>
   <time name="dav">   17.47   17.55</time>
   <time name="total">   17.48   17.56</time>
   <dipole>
    <v name="dipole">      0.00000000       0.00000000       0.42979289 </v>
    <i name="Tr[quadrupol]">    -54.92729326 </i>
    <i name="Echarged">      0.00000000 </i>
    <i name="Edipol_quadrupol">      0.00000000 </i>
    <i name="Eion">      0.00000000 </i>
   </dipole>
   <energy>
    <i name="e_fr_energy">    -22.68483083 </i>
    <i name="e_wo_entrp">    -22.68483083 </i>
    <i name="e_0_energy">    -22.68483083 </i>
   </energy>
  </scstep>
  <scstep>
   <time name="dav">   18.67   18.71</time>
   <time name="total">   19.72   19.77</time>
   <dipole>
    <v name="dipole">      0.00000000       0.00000000       0.42979289 </v>
    <i name="Tr[quadrupol]">    -54.92729326 </i>
    <i name="Echarged">      0.00000000 </i>
    <i name="Edipol_quadrupol">      0.00000000 </i>
    <i name="Eion">      0.00000000 </i>
   </dipole>
   <energy>
    <i name="e_fr_energy">    -22.69733082 </i>
    <i name="e_wo_entrp">    -22.69733082 </i>
    <i name="e_0_energy">    -22.69733082 </i>
   </energy>
  </scstep>
  <scstep>
   <time name="dav">   16.52   16.54</time>
   <time name="total">   17.91   17.93</time>
   <dipole>
    <v name="dipole">      0.00000000       0.00000000       0.38541801 </v>
    <i name="Tr[quadrupol]">    -54.57453175 </i>
    <i name="Echarged">      0.00000000 </i>
    <i name="Edipol_quadrupol">      0.00000000 </i>
    <i name="Eion">      0.00000000 </i>
   </dipole>
   <energy>
    <i name="e_fr_energy">    -18.51253293 </i>
    <i name="e_wo_entrp">    -18.51252087 </i>
    <i name="e_0_energy">    -18.51252690 </i>
   </energy>
  </scstep>
  <scstep>
   <time name="dav">   16.51   16.66</time>
   <time name="total">   17.89   18.04</time>
   <dipole>
    <v name="dipole">      0.00000000       0.00000000       0.61465064 </v>
    <i name="Tr[quadrupol]">    -55.33446918 </i>
    <i name="Echarged">      0.00000000 </i>
    <i name="Edipol_quadrupol">      0.00000000 </i>
    <i name="Eion">      0.00000000 </i>
   </dipole>
   <energy>
    <i name="e_fr_energy">    -18.30867534 </i>
    <i name="e_wo_entrp">    -18.30867534 </i>
    <i name="e_0_energy">    -18.30867534 </i>
   </energy>
  </scstep>
  <scstep>
   <time name="dav">   15.40   15.40</time>
   <time name="total">   16.78   16.78</time>
   <dipole>
    <v name="dipole">      0.00000000       0.00000000       0.70550195 </v>
    <i name="Tr[quadrupol]">    -55.41049852 </i>
    <i name="Echarged">      0.00000000 </i>
    <i name="Edipol_quadrupol">      0.00000000 </i>
    <i name="Eion">      0.00000000 </i>
   </dipole>
   <energy>
    <i name="e_fr_energy">    -18.09482939 </i>
    <i name="e_wo_entrp">    -18.09482939 </i>
    <i name="e_0_energy">    -18.09482939 </i>
   </energy>
  </scstep>
  <scstep>
   <time name="dav">   16.09   16.12</time>
   <time name="total">   17.28   17.53</time>
   <dipole>
    <v name="dipole">      0.00000000       0.00000000       0.73040889 </v>
    <i name="Tr[quadrupol]">    -55.39070566 </i>
    <i name="Echarged">      0.00000000 </i>
    <i name="Edipol_quadrupol">      0.00000000 </i>
    <i name="Eion">      0.00000000 </i>
   </dipole>
   <energy>
    <i name="e_fr_energy">    -18.79277552 </i>
    <i name="e_wo_entrp">    -18.79277552 </i>
    <i name="e_0_energy">    -18.79277552 </i>
   </energy>
  </scstep>
  <scstep>
   <time name="dav">   16.10   16.19</time>
   <time name="total">   17.47   17.57</time>
   <dipole>
    <v name="dipole">      0.00000000       0.00000000       0.54731455 </v>
    <i name="Tr[quadrupol]">    -54.85517401 </i>
    <i name="Echarged">      0.00000000 </i>
    <i name="Edipol_quadrupol">      0.00000000 </i>
    <i name="Eion">      0.00000000 </i>
   </dipole>
   <energy>
    <i name="e_fr_energy">    -19.85160748 </i>
    <i name="e_wo_entrp">    -19.85160748 </i>
    <i name="e_0_energy">    -19.85160748 </i>
   </energy>
  </scstep>
  <scstep>
   <time name="dav">   16.80   16.80</time>
   <time name="total">   18.17   18.18</time>
   <dipole>
    <v name="dipole">      0.00000000       0.00000000       0.29188141 </v>
    <i name="Tr[quadrupol]">    -54.24742818 </i>
    <i name="Echarged">      0.00000000 </i>
    <i name="Edipol_quadrupol">      0.00000000 </i>
    <i name="Eion">      0.00000000 </i>
   </dipole>
   <energy>
    <i name="e_fr_energy">    -20.71361097 </i>
    <i name="e_wo_entrp">    -20.71361097 </i>
    <i name="e_0_energy">    -20.71361097 </i>
   </energy>
  </scstep>
  <scstep>
   <time name="dav">   18.09   18.30</time>
   <time name="total">   19.46   19.68</time>
   <dipole>
    <v name="dipole">      0.00000000       0.00000000      -0.04788288 </v>
    <i name="Tr[quadrupol]">    -53.58862634 </i>
    <i name="Echarged">      0.00000000 </i>
    <i name="Edipol_quadrupol">      0.00000000 </i>
    <i name="Eion">      0.00000000 </i>
   </dipole>
   <energy>
    <i name="e_fr_energy">    -21.26226064 </i>
    <i name="e_wo_entrp">    -21.26226064 </i>
    <i name="e_0_energy">    -21.26226064 </i>
   </energy>
  </scstep>
  <scstep>
   <time name="dav">   17.69   17.77</time>
   <time name="total">   19.06   19.15</time>
   <dipole>
    <v name="dipole">      0.00000000       0.00000000      -0.15508635 </v>
    <i name="Tr[quadrupol]">    -53.56022314 </i>
    <i name="Echarged">      0.00000000 </i>
    <i name="Edipol_quadrupol">      0.00000000 </i>
    <i name="Eion">      0.00000000 </i>
   </dipole>
   <energy>
    <i name="e_fr_energy">    -21.44925068 </i>
    <i name="e_wo_entrp">    -21.44925068 </i>
    <i name="e_0_energy">    -21.44925068 </i>
   </energy>
  </scstep>
  <scstep>
   <time name="dav">   16.88   17.03</time>
   <time name="total">   18.25   18.40</time>
   <dipole>
    <v name="dipole">      0.00000000       0.00000000      -0.11233800 </v>
    <i name="Tr[quadrupol]">    -54.00550569 </i>
    <i name="Echarged">      0.00000000 </i>
    <i name="Edipol_quadrupol">      0.00000000 </i>
    <i name="Eion">      0.00000000 </i>
   </dipole>
   <energy>
    <i name="e_fr_energy">    -21.48541368 </i>
    <i name="e_wo_entrp">    -21.48541368 </i>
    <i name="e_0_energy">    -21.48541368 </i>
   </energy>
  </scstep>
  <scstep>
   <time name="dav">   17.21   17.21</time>
   <time name="total">   18.58   18.59</time>
   <dipole>
    <v name="dipole">      0.00000000       0.00000000       0.02734416 </v>
    <i name="Tr[quadrupol]">    -54.51471179 </i>
    <i name="Echarged">      0.00000000 </i>
    <i name="Edipol_quadrupol">      0.00000000 </i>
    <i name="Eion">      0.00000000 </i>
   </dipole>
   <energy>
    <i name="e_fr_energy">    -21.47727137 </i>
    <i name="e_wo_entrp">    -21.47727137 </i>
    <i name="e_0_energy">    -21.47727137 </i>
   </energy>
  </scstep>
  <scstep>
   <time name="dav">   17.03   17.03</time>
   <time name="total">   18.40   18.41</time>
   <dipole>
    <v name="dipole">      0.00000000       0.00000000       0.16557652 </v>
    <i name="Tr[quadrupol]">    -54.76991995 </i>
    <i name="Echarged">      0.00000000 </i>
    <i name="Edipol_quadrupol">      0.00000000 </i>
    <i name="Eion">      0.00000000 </i>
   </dipole>
   <energy>
    <i name="e_fr_energy">    -21.56287967 </i>
    <i name="e_wo_entrp">    -21.56287967 </i>
    <i name="e_0_energy">    -21.56287967 </i>
   </energy>
  </scstep>
  <scstep>
   <time name="dav">   17.73   18.35</time>
   <time name="total">   19.11   19.73</time>
   <dipole>
    <v name="dipole">      0.00000000       0.00000000       0.31129352 </v>
    <i name="Tr[quadrupol]">    -54.81980363 </i>
    <i name="Echarged">      0.00000000 </i>
    <i name="Edipol_quadrupol">      0.00000000 </i>
    <i name="Eion">      0.00000000 </i>
   </dipole>
   <energy>
    <i name="e_fr_energy">    -21.65758655 </i>
    <i name="e_wo_entrp">    -21.65758655 </i>
    <i name="e_0_energy">    -21.65758655 </i>
   </energy>
  </scstep>
  <scstep>
   <time name="dav">   16.77   16.77</time>
   <time name="total">   18.14   18.15</time>
   <dipole>
    <v name="dipole">      0.00000000       0.00000000       0.40569261 </v>
    <i name="Tr[quadrupol]">    -54.68726305 </i>
    <i name="Echarged">      0.00000000 </i>
    <i name="Edipol_quadrupol">      0.00000000 </i>
    <i name="Eion">      0.00000000 </i>
   </dipole>
   <energy>
    <i name="e_fr_energy">    -21.73086824 </i>
    <i name="e_wo_entrp">    -21.73086824 </i>
    <i name="e_0_energy">    -21.73086824 </i>
   </energy>
  </scstep>
  <scstep>
   <time name="dav">   16.25   16.30</time>
   <time name="total">   17.63   17.68</time>
   <dipole>
    <v name="dipole">      0.00000000       0.00000000       0.36729107 </v>
    <i name="Tr[quadrupol]">    -54.49208455 </i>
    <i name="Echarged">      0.00000000 </i>
    <i name="Edipol_quadrupol">      0.00000000 </i>
    <i name="Eion">      0.00000000 </i>
   </dipole>
   <energy>
    <i name="e_fr_energy">    -21.72746057 </i>
    <i name="e_wo_entrp">    -21.72746057 </i>
    <i name="e_0_energy">    -21.72746057 </i>
   </energy>
  </scstep>
  <scstep>
   <time name="dav">   15.53   15.54</time>
   <time name="total">   16.91   16.92</time>
   <dipole>
    <v name="dipole">      0.00000000       0.00000000       0.31958373 </v>
    <i name="Tr[quadrupol]">    -54.43464494 </i>
    <i name="Echarged">      0.00000000 </i>
    <i name="Edipol_quadrupol">      0.00000000 </i>
    <i name="Eion">      0.00000000 </i>
   </dipole>
   <energy>
    <i name="e_fr_energy">    -21.70653593 </i>
    <i name="e_wo_entrp">    -21.70653593 </i>
    <i name="e_0_energy">    -21.70653593 </i>
   </energy>
  </scstep>
  <scstep>
   <time name="dav">   15.25   15.26</time>
   <time name="total">   16.63   16.63</time>
   <dipole>
    <v name="dipole">      0.00000000       0.00000000       0.26384412 </v>
    <i name="Tr[quadrupol]">    -54.46166986 </i>
    <i name="Echarged">      0.00000000 </i>
    <i name="Edipol_quadrupol">      0.00000000 </i>
    <i name="Eion">      0.00000000 </i>
   </dipole>
   <energy>
    <i name="e_fr_energy">    -21.69896449 </i>
    <i name="e_wo_entrp">    -21.69896449 </i>
    <i name="e_0_energy">    -21.69896449 </i>
   </energy>
  </scstep>
  <scstep>
   <time name="dav">   17.18   17.47</time>
   <time name="total">   18.56   18.85</time>
   <dipole>
    <v name="dipole">      0.00000000       0.00000000       0.23641251 </v>
    <i name="Tr[quadrupol]">    -54.50686366 </i>
    <i name="Echarged">      0.00000000 </i>
    <i name="Edipol_quadrupol">      0.00000000 </i>
    <i name="Eion">      0.00000000 </i>
   </dipole>
   <energy>
    <i name="e_fr_energy">    -21.69867430 </i>
    <i name="e_wo_entrp">    -21.69867430 </i>
    <i name="e_0_energy">    -21.69867430 </i>
   </energy>
  </scstep>
  <scstep>
   <time name="dav">   15.89   15.99</time>
   <time name="total">   17.26   17.37</time>
   <dipole>
    <v name="dipole">      0.00000000       0.00000000       0.24051950 </v>
    <i name="Tr[quadrupol]">    -54.53763323 </i>
    <i name="Echarged">      0.00000000 </i>
    <i name="Edipol_quadrupol">      0.00000000 </i>
    <i name="Eion">      0.00000000 </i>
   </dipole>
   <energy>
    <i name="e_fr_energy">    -21.70267708 </i>
    <i name="e_wo_entrp">    -21.70267708 </i>
    <i name="e_0_energy">    -21.70267708 </i>
   </energy>
  </scstep>
  <scstep>
   <time name="dav">   15.12   15.13</time>
   <time name="total">   16.38   16.41</time>
   <dipole>
    <v name="dipole">      0.00000000       0.00000000       0.24773890 </v>
    <i name="Tr[quadrupol]">    -54.55313688 </i>
    <i name="Echarged">      0.00000000 </i>
    <i name="Edipol_quadrupol">      0.00000000 </i>
    <i name="Eion">      0.00000000 </i>
   </dipole>
   <energy>
    <i name="e_fr_energy">    -21.70527394 </i>
    <i name="e_wo_entrp">    -21.70527394 </i>
    <i name="e_0_energy">    -21.70527394 </i>
   </energy>
  </scstep>
  <scstep>
   <time name="dav">   15.71   15.72</time>
   <time name="total">   17.09   17.33</time>
   <dipole>
    <v name="dipole">      0.00000000       0.00000000       0.25053519 </v>
    <i name="Tr[quadrupol]">    -54.55329981 </i>
    <i name="Echarged">      0.00000000 </i>
    <i name="Edipol_quadrupol">      0.00000000 </i>
    <i name="Eion">      0.00000000 </i>
   </dipole>
   <energy>
    <i name="e_fr_energy">    -21.70619263 </i>
    <i name="e_wo_entrp">    -21.70619263 </i>
    <i name="e_0_energy">    -21.70619263 </i>
   </energy>
  </scstep>
  <scstep>
   <time name="dav">   16.43   16.48</time>
   <time name="total">   17.81   17.86</time>
   <dipole>
    <v name="dipole">      0.00000000       0.00000000       0.25152241 </v>
    <i name="Tr[quadrupol]">    -54.54882524 </i>
    <i name="Echarged">      0.00000000 </i>
    <i name="Edipol_quadrupol">      0.00000000 </i>
    <i name="Eion">      0.00000000 </i>
   </dipole>
   <energy>
    <i name="e_fr_energy">    -21.70649296 </i>
    <i name="e_wo_entrp">    -21.70649296 </i>
    <i name="e_0_energy">    -21.70649296 </i>
   </energy>
  </scstep>
  <scstep>
   <time name="dav">   15.54   15.65</time>
   <time name="total">   16.92   17.03</time>
   <dipole>
    <v name="dipole">      0.00000000       0.00000000       0.25242114 </v>
    <i name="Tr[quadrupol]">    -54.54532888 </i>
    <i name="Echarged">      0.00000000 </i>
    <i name="Edipol_quadrupol">      0.00000000 </i>
    <i name="Eion">      0.00000000 </i>
   </dipole>
   <energy>
    <i name="e_fr_energy">    -21.70670793 </i>
    <i name="e_wo_entrp">    -21.70670793 </i>
    <i name="e_0_energy">    -21.70670793 </i>
   </energy>
  </scstep>
  <scstep>
   <time name="dav">   15.75   15.75</time>
   <time name="total">   17.13   17.13</time>
   <dipole>
    <v name="dipole">      0.00000000       0.00000000       0.25228986 </v>
    <i name="Tr[quadrupol]">    -54.54288090 </i>
    <i name="Echarged">      0.00000000 </i>
    <i name="Edipol_quadrupol">      0.00000000 </i>
    <i name="Eion">      0.00000000 </i>
   </dipole>
   <energy>
    <i name="e_fr_energy">    -21.70670089 </i>
    <i name="e_wo_entrp">    -21.70670089 </i>
    <i name="e_0_energy">    -21.70670089 </i>
   </energy>
  </scstep>
  <scstep>
   <time name="dav">   15.47   15.47</time>
   <time name="total">   16.69   16.70</time>
   <dipole>
    <v name="dipole">      0.00000000       0.00000000       0.25200326 </v>
    <i name="Tr[quadrupol]">    -54.54092771 </i>
    <i name="Echarged">      0.00000000 </i>
    <i name="Edipol_quadrupol">      0.00000000 </i>
    <i name="Eion">      0.00000000 </i>
   </dipole>
   <energy>
    <i name="e_fr_energy">    -21.70665419 </i>
    <i name="e_wo_entrp">    -21.70665419 </i>
    <i name="e_0_energy">    -21.70665419 </i>
   </energy>
  </scstep>
  <scstep>
   <time name="dav">   14.17   14.20</time>
   <time name="total">   15.62   15.79</time>
   <dipole>
    <v name="dipole">      0.00000000       0.00000000       0.25166489 </v>
    <i name="Tr[quadrupol]">    -54.53963921 </i>
    <i name="Echarged">      0.00000000 </i>
    <i name="Edipol_quadrupol">      0.00000000 </i>
    <i name="Eion">      0.00000000 </i>
   </dipole>
   <energy>
    <i name="e_fr_energy">    -21.70659642 </i>
    <i name="e_wo_entrp">    -21.70659642 </i>
    <i name="e_0_energy">    -21.70659642 </i>
   </energy>
  </scstep>
  <scstep>
   <time name="dav">   13.90   13.91</time>
   <time name="total">   15.29   15.29</time>
   <dipole>
    <v name="dipole">      0.00000000       0.00000000       0.25149482 </v>
    <i name="Tr[quadrupol]">    -54.53945560 </i>
    <i name="Echarged">      0.00000000 </i>
    <i name="Edipol_quadrupol">      0.00000000 </i>
    <i name="Eion">      0.00000000 </i>
   </dipole>
   <energy>
    <i name="e_fr_energy">    -21.70656534 </i>
    <i name="e_wo_entrp">    -21.70656534 </i>
    <i name="e_0_energy">    -21.70656534 </i>
   </energy>
  </scstep>
  <scstep>
   <time name="dav">   13.89   14.13</time>
   <time name="total">   15.16   15.40</time>
   <dipole>
    <v name="dipole">      0.00000000       0.00000000       0.25125597 </v>
    <i name="Tr[quadrupol]">    -54.53945411 </i>
    <i name="Echarged">      0.00000000 </i>
    <i name="Edipol_quadrupol">      0.00000000 </i>
    <i name="Eion">      0.00000000 </i>
   </dipole>
   <energy>
    <i name="e_fr_energy">    -21.70652122 </i>
    <i name="e_wo_entrp">    -21.70652122 </i>
    <i name="e_0_energy">    -21.70652122 </i>
   </energy>
  </scstep>
  <scstep>
   <time name="dav">   12.04   12.05</time>
   <time name="total">   13.52   13.53</time>
   <dipole>
    <v name="dipole">      0.00000000       0.00000000       0.25120824 </v>
    <i name="Tr[quadrupol]">    -54.53937283 </i>
    <i name="Echarged">      0.00000000 </i>
    <i name="Edipol_quadrupol">      0.00000000 </i>
    <i name="Eion">      0.00000000 </i>
   </dipole>
   <energy>
    <i name="e_fr_energy">    -21.70651254 </i>
    <i name="e_wo_entrp">    -21.70651254 </i>
    <i name="e_0_energy">    -21.70651254 </i>
   </energy>
  </scstep>
  <scstep>
   <time name="dav">   12.62   12.65</time>
   <time name="total">   14.00   14.03</time>
   <dipole>
    <v name="dipole">      0.00000000       0.00000000       0.25119741 </v>
    <i name="Tr[quadrupol]">    -54.53937542 </i>
    <i name="Echarged">      0.00000000 </i>
    <i name="Edipol_quadrupol">      0.00000000 </i>
    <i name="Eion">      0.00000000 </i>
   </dipole>
   <energy>
    <i name="e_fr_energy">    -21.70651066 </i>
    <i name="e_wo_entrp">    -21.70651066 </i>
    <i name="e_0_energy">    -21.70651066 </i>
   </energy>
  </scstep>
  <scstep>
   <time name="dav">   12.07   12.07</time>
   <time name="total">   13.45   13.45</time>
   <dipole>
    <v name="dipole">      0.00000000       0.00000000       0.25117948 </v>
    <i name="Tr[quadrupol]">    -54.53932700 </i>
    <i name="Echarged">      0.00000000 </i>
    <i name="Edipol_quadrupol">      0.00000000 </i>
    <i name="Eion">      0.00000000 </i>
   </dipole>
   <energy>
    <i name="e_fr_energy">    -21.70650731 </i>
    <i name="e_wo_entrp">    -21.70650731 </i>
    <i name="e_0_energy">    -21.70650731 </i>
   </energy>
  </scstep>
  <scstep>
   <time name="dav">   12.79   12.80</time>
   <time name="total">   14.17   14.19</time>
   <dipole>
    <v name="dipole">      0.00000000       0.00000000       0.25118089 </v>
    <i name="Tr[quadrupol]">    -54.53930185 </i>
    <i name="Echarged">      0.00000000 </i>
    <i name="Edipol_quadrupol">      0.00000000 </i>
    <i name="Eion">      0.00000000 </i>
   </dipole>
   <energy>
    <i name="e_fr_energy">    -21.70650761 </i>
    <i name="e_wo_entrp">    -21.70650761 </i>
    <i name="e_0_energy">    -21.70650761 </i>
   </energy>
  </scstep>
  <scstep>
   <time name="dav">   12.68   12.68</time>
   <time name="total">   14.06   14.06</time>
   <dipole>
    <v name="dipole">      0.00000000       0.00000000       0.25118320 </v>
    <i name="Tr[quadrupol]">    -54.53930408 </i>
    <i name="Echarged">      0.00000000 </i>
    <i name="Edipol_quadrupol">      0.00000000 </i>
    <i name="Eion">      0.00000000 </i>
   </dipole>
   <energy>
    <i name="e_fr_energy">    -21.70650806 </i>
    <i name="e_wo_entrp">    -21.70650806 </i>
    <i name="e_0_energy">    -21.70650806 </i>
   </energy>
  </scstep>
  <scstep>
   <time name="dav">   12.46   12.48</time>
   <time name="total">   12.78   12.80</time>
   <dipole>
    <v name="dipole">      0.00000000       0.00000000       0.25118328 </v>
    <i name="Tr[quadrupol]">    -54.53930650 </i>
    <i name="Echarged">      0.00000000 </i>
    <i name="Edipol_quadrupol">      0.00000000 </i>
    <i name="Eion">      0.00000000 </i>
   </dipole>
   <energy>
    <i name="alphaZ">     65.64718368 </i>
    <i name="ewald">  11816.21891409 </i>
    <i name="hartreedc"> -13384.34900807 </i>
    <i name="XCdc">     61.92020792 </i>
    <i name="pawpsdc">   1166.44196238 </i>
    <i name="pawaedc">  -1145.32180561 </i>
    <i name="eentropy">     -0.00000000 </i>
    <i name="bandstr">   -440.20813896 </i>
    <i name="atom">   1837.94417650 </i>
    <i name="e_fr_energy">    -21.70650807 </i>
    <i name="e_wo_entrp">    -21.70650807 </i>
    <i name="e_0_energy">    -21.70650807 </i>
   </energy>
  </scstep>
  <structure>
   <crystal>
    <varray name="basis" >
     <v>       1.59817141      -2.76811338       0.00000000 </v>
     <v>       1.59817141       2.76811338       0.00000000 </v>
     <v>       0.00000000       0.00000000      34.96267827 </v>
    </varray>
    <i name="volume">    309.34415938 </i>
    <varray name="rec_basis" >
     <v>       0.31285756      -0.18062844       0.00000000 </v>
     <v>       0.31285756       0.18062844       0.00000000 </v>
     <v>       0.00000000       0.00000000       0.02860193 </v>
    </varray>
   </crystal>
   <varray name="positions" >
    <v>       0.66666700       0.33333300       0.10664700 </v>
    <v>       0.33333300       0.66666700       0.06198962 </v>
    <v>       0.33333300       0.66666700       0.15130538 </v>
   </varray>
  </structure>
  <varray name="forces" >
   <v>      -0.00000000      -0.00000000       0.00000000 </v>
   <v>       0.00000000       0.00000000       0.00193725 </v>
   <v>       0.00000000       0.00000000      -0.00193725 </v>
  </varray>
  <varray name="stress" >
   <v>      -0.64504922       0.00000000       0.00000000 </v>
   <v>       0.00000000      -0.64504889       0.00000000 </v>
   <v>       0.00000000       0.00000000       2.04238174 </v>
  </varray>
  <energy>
   <i name="e_fr_energy">    -21.70650807 </i>
   <i name="e_wo_entrp">    -21.70650807 </i>
   <i name="e_0_energy">     -0.00000000 </i>
  </energy>
  <time name="totalsc">  651.89  655.72</time>
  <eigenvalues>
   <array>
    <dimension dim="1">band</dimension>
    <dimension dim="2">kpoint</dimension>
    <dimension dim="3">spin</dimension>
    <field>eigene</field>
    <field>occ</field>
    <set>
     <set comment="spin 1">
      <set comment="kpoint 1">
       <r>  -40.8917    1.0000 </r>
       <r>  -40.7060    1.0000 </r>
       <r>  -40.7060    1.0000 </r>
       <r>  -19.9221    1.0000 </r>
       <r>  -18.5551    1.0000 </r>
       <r>  -11.4157    1.0000 </r>
       <r>   -8.4669    1.0000 </r>
       <r>   -8.4669    1.0000 </r>
       <r>   -7.5547    1.0000 </r>
       <r>   -7.3509    1.0000 </r>
       <r>   -7.3508    1.0000 </r>
       <r>   -5.7934    1.0000 </r>
       <r>   -3.1563    0.0000 </r>
       <r>   -3.1562    0.0000 </r>
       <r>   -2.8084    0.0000 </r>
       <r>   -2.8084    0.0000 </r>
       <r>    0.1269    0.0000 </r>
       <r>    0.6163    0.0000 </r>
       <r>    1.7246    0.0000 </r>
       <r>    2.0440    0.0000 </r>
       <r>    2.4260    0.0000 </r>
       <r>    3.0025    0.0000 </r>
       <r>    3.1902    0.0000 </r>
       <r>    3.5320    0.0000 </r>
      </set>
      <set comment="kpoint 2">
       <r>  -40.8905    1.0000 </r>
       <r>  -40.7122    1.0000 </r>
       <r>  -40.7074    1.0000 </r>
       <r>  -19.8969    1.0000 </r>
       <r>  -18.5443    1.0000 </r>
       <r>  -11.3863    1.0000 </r>
       <r>   -8.5263    1.0000 </r>
       <r>   -8.4408    1.0000 </r>
       <r>   -7.7611    1.0000 </r>
       <r>   -7.3925    1.0000 </r>
       <r>   -7.1818    1.0000 </r>
       <r>   -5.8056    1.0000 </r>
       <r>   -3.1997    0.0000 </r>
       <r>   -3.1241    0.0000 </r>
       <r>   -2.8790    0.0000 </r>
       <r>   -2.8241    0.0000 </r>
       <r>    0.2079    0.0000 </r>
       <r>    0.6959    0.0000 </r>
       <r>    1.7594    0.0000 </r>
       <r>    2.0770    0.0000 </r>
       <r>    2.4595    0.0000 </r>
       <r>    3.0362    0.0000 </r>
       <r>    3.3159    0.0000 </r>
       <r>    3.5652    0.0000 </r>
      </set>
      <set comment="kpoint 3">
       <r>  -40.8870    1.0000 </r>
       <r>  -40.7302    1.0000 </r>
       <r>  -40.7115    1.0000 </r>
       <r>  -19.8224    1.0000 </r>
       <r>  -18.5122    1.0000 </r>
       <r>  -11.3010    1.0000 </r>
       <r>   -8.6928    1.0000 </r>
       <r>   -8.3641    1.0000 </r>
       <r>   -8.0620    1.0000 </r>
       <r>   -7.5086    1.0000 </r>
       <r>   -7.0014    1.0000 </r>
       <r>   -5.8483    1.0000 </r>
       <r>   -3.3026    0.0000 </r>
       <r>   -3.0781    0.0000 </r>
       <r>   -3.0506    0.0000 </r>
       <r>   -2.8248    0.0000 </r>
       <r>    0.3904    0.0000 </r>
       <r>    0.9566    0.0000 </r>
       <r>    1.8641    0.0000 </r>
       <r>    2.1745    0.0000 </r>
       <r>    2.5599    0.0000 </r>
       <r>    3.1364    0.0000 </r>
       <r>    3.6555    0.0000 </r>
       <r>    3.6661    0.0000 </r>
      </set>
      <set comment="kpoint 4">
       <r>  -40.8814    1.0000 </r>
       <r>  -40.7589    1.0000 </r>
       <r>  -40.7180    1.0000 </r>
       <r>  -19.7017    1.0000 </r>
       <r>  -18.4602    1.0000 </r>
       <r>  -11.1697    1.0000 </r>
       <r>   -8.9362    1.0000 </r>
       <r>   -8.3782    1.0000 </r>
       <r>   -8.2438    1.0000 </r>
       <r>   -7.6758    1.0000 </r>
       <r>   -6.9069    1.0000 </r>
       <r>   -5.9371    1.0000 </r>
       <r>   -3.4221    0.0000 </r>
       <r>   -3.2185    0.0000 </r>
       <r>   -3.1356    0.0000 </r>
       <r>   -2.7032    0.0000 </r>
       <r>    0.5998    0.0000 </r>
       <r>    1.3761    0.0000 </r>
       <r>    2.0403    0.0000 </r>
       <r>    2.3399    0.0000 </r>
       <r>    2.7264    0.0000 </r>
       <r>    3.3020    0.0000 </r>
       <r>    3.8262    0.0000 </r>
       <r>    4.0947    0.0000 </r>
      </set>
      <set comment="kpoint 5">
       <r>  -40.8741    1.0000 </r>
       <r>  -40.7959    1.0000 </r>
       <r>  -40.7265    1.0000 </r>
       <r>  -19.5400    1.0000 </r>
       <r>  -18.3900    1.0000 </r>
       <r>  -11.0127    1.0000 </r>
       <r>   -9.2160    1.0000 </r>
       <r>   -8.6997    1.0000 </r>
       <r>   -8.1082    1.0000 </r>
       <r>   -7.8489    1.0000 </r>
       <r>   -6.9163    1.0000 </r>
       <r>   -6.0875    1.0000 </r>
       <r>   -3.5529    0.0000 </r>
       <r>   -3.2593    0.0000 </r>
       <r>   -3.2533    0.0000 </r>
       <r>   -2.5069    0.0000 </r>
       <r>    0.8325    0.0000 </r>
       <r>    1.8097    0.0000 </r>
       <r>    2.2866    0.0000 </r>
       <r>    2.6054    0.0000 </r>
       <r>    2.9598    0.0000 </r>
       <r>    3.5305    0.0000 </r>
       <r>    4.0091    0.0000 </r>
       <r>    4.1123    0.0000 </r>
      </set>
      <set comment="kpoint 6">
       <r>  -40.8657    1.0000 </r>
       <r>  -40.8388    1.0000 </r>
       <r>  -40.7364    1.0000 </r>
       <r>  -19.3447    1.0000 </r>
       <r>  -18.3046    1.0000 </r>
       <r>  -10.8691    1.0000 </r>
       <r>   -9.4837    1.0000 </r>
       <r>   -9.0204    1.0000 </r>
       <r>   -8.1540    1.0000 </r>
       <r>   -7.8205    1.0000 </r>
       <r>   -7.0130    1.0000 </r>
       <r>   -6.2946    1.0000 </r>
       <r>   -3.6423    0.0000 </r>
       <r>   -3.3946    0.0000 </r>
       <r>   -3.1451    0.0000 </r>
       <r>   -2.2971    0.0000 </r>
       <r>    1.0933    0.0000 </r>
       <r>    2.1103    0.0000 </r>
       <r>    2.5741    0.0000 </r>
       <r>    2.9492    0.0000 </r>
       <r>    3.2661    0.0000 </r>
       <r>    3.7661    0.0000 </r>
       <r>    3.8489    0.0000 </r>
       <r>    4.0724    0.0000 </r>
      </set>
      <set comment="kpoint 7">
       <r>  -40.8845    1.0000 </r>
       <r>  -40.8565    1.0000 </r>
       <r>  -40.7470    1.0000 </r>
       <r>  -19.1257    1.0000 </r>
       <r>  -18.2077    1.0000 </r>
       <r>  -10.8054    1.0000 </r>
       <r>   -9.6841    1.0000 </r>
       <r>   -9.3289    1.0000 </r>
       <r>   -8.3435    1.0000 </r>
       <r>   -7.6255    1.0000 </r>
       <r>   -7.1574    1.0000 </r>
       <r>   -6.5187    1.0000 </r>
       <r>   -3.6560    0.0000 </r>
       <r>   -3.5164    0.0000 </r>
       <r>   -2.9443    0.0000 </r>
       <r>   -2.1013    0.0000 </r>
       <r>    1.3718    0.0000 </r>
       <r>    2.2811    0.0000 </r>
       <r>    2.8511    0.0000 </r>
       <r>    3.0324    0.0000 </r>
       <r>    3.4776    0.0000 </r>
       <r>    3.7219    0.0000 </r>
       <r>    3.9219    0.0000 </r>
       <r>    4.2267    0.0000 </r>
      </set>
      <set comment="kpoint 8">
       <r>  -40.9298    1.0000 </r>
       <r>  -40.8474    1.0000 </r>
       <r>  -40.7576    1.0000 </r>
       <r>  -18.8958    1.0000 </r>
       <r>  -18.1041    1.0000 </r>
       <r>  -10.8778    1.0000 </r>
       <r>   -9.8143    1.0000 </r>
       <r>   -9.5823    1.0000 </r>
       <r>   -8.5309    1.0000 </r>
       <r>   -7.4143    1.0000 </r>
       <r>   -7.3101    1.0000 </r>
       <r>   -6.6968    1.0000 </r>
       <r>   -3.6095    0.0000 </r>
       <r>   -3.6039    0.0000 </r>
       <r>   -2.6991    0.0000 </r>
       <r>   -1.9335    0.0000 </r>
       <r>    1.6368    0.0000 </r>
       <r>    2.3431    0.0000 </r>
       <r>    2.5989    0.0000 </r>
       <r>    3.0906    0.0000 </r>
       <r>    3.4791    0.0000 </r>
       <r>    4.0301    0.0000 </r>
       <r>    4.1949    0.0000 </r>
       <r>    4.6484    0.0000 </r>
      </set>
      <set comment="kpoint 9">
       <r>  -40.9717    1.0000 </r>
       <r>  -40.8389    1.0000 </r>
       <r>  -40.7674    1.0000 </r>
       <r>  -18.6707    1.0000 </r>
       <r>  -17.9994    1.0000 </r>
       <r>  -11.0523    1.0000 </r>
       <r>  -10.0088    1.0000 </r>
       <r>   -9.6884    1.0000 </r>
       <r>   -8.6954    1.0000 </r>
       <r>   -7.4464    1.0000 </r>
       <r>   -7.2163    1.0000 </r>
       <r>   -6.7718    1.0000 </r>
       <r>   -3.6658    0.0000 </r>
       <r>   -3.5082    0.0000 </r>
       <r>   -2.4521    0.0000 </r>
       <r>   -1.7998    0.0000 </r>
       <r>    1.7804    0.0000 </r>
       <r>    2.0689    0.0000 </r>
       <r>    2.3852    0.0000 </r>
       <r>    3.0850    0.0000 </r>
       <r>    3.8507    0.0000 </r>
       <r>    4.2876    0.0000 </r>
       <r>    4.5902    0.0000 </r>
       <r>    5.0917    0.0000 </r>
      </set>
      <set comment="kpoint 10">
       <r>  -41.0075    1.0000 </r>
       <r>  -40.8316    1.0000 </r>
       <r>  -40.7758    1.0000 </r>
       <r>  -18.4691    1.0000 </r>
       <r>  -17.9004    1.0000 </r>
       <r>  -11.2528    1.0000 </r>
       <r>  -10.2315    1.0000 </r>
       <r>   -9.7394    1.0000 </r>
       <r>   -8.8291    1.0000 </r>
       <r>   -7.5550    1.0000 </r>
       <r>   -7.0496    1.0000 </r>
       <r>   -6.7293    1.0000 </r>
       <r>   -3.6861    0.0000 </r>
       <r>   -3.3903    0.0000 </r>
       <r>   -2.2379    0.0000 </r>
       <r>   -1.7006    0.0000 </r>
       <r>    1.3530    0.0000 </r>
       <r>    2.0428    0.0000 </r>
       <r>    2.3502    0.0000 </r>
       <r>    3.2278    0.0000 </r>
       <r>    4.1908    0.0000 </r>
       <r>    4.5166    0.0000 </r>
       <r>    5.0076    0.0000 </r>
       <r>    5.4594    0.0000 </r>
      </set>
      <set comment="kpoint 11">
       <r>  -41.0348    1.0000 </r>
       <r>  -40.8260    1.0000 </r>
       <r>  -40.7823    1.0000 </r>
       <r>  -18.3101    1.0000 </r>
       <r>  -17.8158    1.0000 </r>
       <r>  -11.4276    1.0000 </r>
       <r>  -10.4121    1.0000 </r>
       <r>   -9.7996    1.0000 </r>
       <r>   -8.9274    1.0000 </r>
       <r>   -7.6321    1.0000 </r>
       <r>   -6.9258    1.0000 </r>
       <r>   -6.6133    1.0000 </r>
       <r>   -3.6804    0.0000 </r>
       <r>   -3.2715    0.0000 </r>
       <r>   -2.0795    0.0000 </r>
       <r>   -1.6335    0.0000 </r>
       <r>    0.8384    0.0000 </r>
       <r>    2.0658    0.0000 </r>
       <r>    2.4184    0.0000 </r>
       <r>    3.3775    0.0000 </r>
       <r>    4.2820    0.0000 </r>
       <r>    4.8328    0.0000 </r>
       <r>    5.3574    0.0000 </r>
       <r>    5.8943    0.0000 </r>
      </set>
      <set comment="kpoint 12">
       <r>  -41.0519    1.0000 </r>
       <r>  -40.8224    1.0000 </r>
       <r>  -40.7863    1.0000 </r>
       <r>  -18.2093    1.0000 </r>
       <r>  -17.7568    1.0000 </r>
       <r>  -11.5452    1.0000 </r>
       <r>  -10.5277    1.0000 </r>
       <r>   -9.8518    1.0000 </r>
       <r>   -8.9874    1.0000 </r>
       <r>   -7.6776    1.0000 </r>
       <r>   -6.8508    1.0000 </r>
       <r>   -6.4991    1.0000 </r>
       <r>   -3.6658    0.0000 </r>
       <r>   -3.1779    0.0000 </r>
       <r>   -1.9856    0.0000 </r>
       <r>   -1.5951    0.0000 </r>
       <r>    0.4687    0.0000 </r>
       <r>    2.0835    0.0000 </r>
       <r>    2.5127    0.0000 </r>
       <r>    3.4247    0.0000 </r>
       <r>    4.2674    0.0000 </r>
       <r>    5.0810    0.0000 </r>
       <r>    5.5914    0.0000 </r>
       <r>    5.8282    0.0000 </r>
      </set>
      <set comment="kpoint 13">
       <r>  -41.0577    1.0000 </r>
       <r>  -40.8212    1.0000 </r>
       <r>  -40.7877    1.0000 </r>
       <r>  -18.1750    1.0000 </r>
       <r>  -17.7353    1.0000 </r>
       <r>  -11.5867    1.0000 </r>
       <r>  -10.5673    1.0000 </r>
       <r>   -9.8722    1.0000 </r>
       <r>   -9.0076    1.0000 </r>
       <r>   -7.6925    1.0000 </r>
       <r>   -6.8258    1.0000 </r>
       <r>   -6.4524    1.0000 </r>
       <r>   -3.6587    0.0000 </r>
       <r>   -3.1413    0.0000 </r>
       <r>   -1.9550    0.0000 </r>
       <r>   -1.5826    0.0000 </r>
       <r>    0.3331    0.0000 </r>
       <r>    2.0952    0.0000 </r>
       <r>    2.5547    0.0000 </r>
       <r>    3.4218    0.0000 </r>
       <r>    4.2426    0.0000 </r>
       <r>    5.2396    0.0000 </r>
       <r>    5.5111    0.0000 </r>
       <r>    5.9988    0.0000 </r>
      </set>
      <set comment="kpoint 14">
       <r>  -40.8881    1.0000 </r>
       <r>  -40.7242    1.0000 </r>
       <r>  -40.7102    1.0000 </r>
       <r>  -19.8471    1.0000 </r>
       <r>  -18.5229    1.0000 </r>
       <r>  -11.3289    1.0000 </r>
       <r>   -8.6387    1.0000 </r>
       <r>   -8.3899    1.0000 </r>
       <r>   -7.9761    1.0000 </r>
       <r>   -7.4800    1.0000 </r>
       <r>   -7.0366    1.0000 </r>
       <r>   -5.8330    1.0000 </r>
       <r>   -3.2755    0.0000 </r>
       <r>   -3.0823    0.0000 </r>
       <r>   -2.9994    0.0000 </r>
       <r>   -2.8327    0.0000 </r>
       <r>    0.3377    0.0000 </r>
       <r>    0.8683    0.0000 </r>
       <r>    1.8292    0.0000 </r>
       <r>    2.1421    0.0000 </r>
       <r>    2.5265    0.0000 </r>
       <r>    3.1031    0.0000 </r>
       <r>    3.5501    0.0000 </r>
       <r>    3.6314    0.0000 </r>
      </set>
      <set comment="kpoint 15">
       <r>  -40.8836    1.0000 </r>
       <r>  -40.7473    1.0000 </r>
       <r>  -40.7158    1.0000 </r>
       <r>  -19.7495    1.0000 </r>
       <r>  -18.4808    1.0000 </r>
       <r>  -11.2202    1.0000 </r>
       <r>   -8.8421    1.0000 </r>
       <r>   -8.2989    1.0000 </r>
       <r>   -8.2481    1.0000 </r>
       <r>   -7.6423    1.0000 </r>
       <r>   -6.9068    1.0000 </r>
       <r>   -5.8986    1.0000 </r>
       <r>   -3.3879    0.0000 </r>
       <r>   -3.1740    0.0000 </r>
       <r>   -3.1045    0.0000 </r>
       <r>   -2.7499    0.0000 </r>
       <r>    0.5254    0.0000 </r>
       <r>    1.2203    0.0000 </r>
       <r>    1.9694    0.0000 </r>
       <r>    2.2717    0.0000 </r>
       <r>    2.6599    0.0000 </r>
       <r>    3.2360    0.0000 </r>
       <r>    3.7624    0.0000 </r>
       <r>    3.9508    0.0000 </r>
      </set>
      <set comment="kpoint 16">
       <r>  -40.8772    1.0000 </r>
       <r>  -40.7799    1.0000 </r>
       <r>  -40.7236    1.0000 </r>
       <r>  -19.6082    1.0000 </r>
       <r>  -18.4196    1.0000 </r>
       <r>  -11.0745    1.0000 </r>
       <r>   -9.1012    1.0000 </r>
       <r>   -8.5547    1.0000 </r>
       <r>   -8.1640    1.0000 </r>
       <r>   -7.8371    1.0000 </r>
       <r>   -6.8585    1.0000 </r>
       <r>   -6.0183    1.0000 </r>
       <r>   -3.5109    0.0000 </r>
       <r>   -3.2870    0.0000 </r>
       <r>   -3.2100    0.0000 </r>
       <r>   -2.5662    0.0000 </r>
       <r>    0.7412    0.0000 </r>
       <r>    1.6656    0.0000 </r>
       <r>    2.1823    0.0000 </r>
       <r>    2.4819    0.0000 </r>
       <r>    2.8596    0.0000 </r>
       <r>    3.4335    0.0000 </r>
       <r>    3.9507    0.0000 </r>
       <r>    4.1990    0.0000 </r>
      </set>
      <set comment="kpoint 17">
       <r>  -40.8693    1.0000 </r>
       <r>  -40.8194    1.0000 </r>
       <r>  -40.7332    1.0000 </r>
       <r>  -19.4296    1.0000 </r>
       <r>  -18.3417    1.0000 </r>
       <r>  -10.9202    1.0000 </r>
       <r>   -9.3723    1.0000 </r>
       <r>   -8.8634    1.0000 </r>
       <r>   -8.1483    1.0000 </r>
       <r>   -7.9037    1.0000 </r>
       <r>   -6.9049    1.0000 </r>
       <r>   -6.1983    1.0000 </r>
       <r>   -3.6286    0.0000 </r>
       <r>   -3.3374    0.0000 </r>
       <r>   -3.2528    0.0000 </r>
       <r>   -2.3519    0.0000 </r>
       <r>    0.9884    0.0000 </r>
       <r>    2.0381    0.0000 </r>
       <r>    2.4529    0.0000 </r>
       <r>    2.8119    0.0000 </r>
       <r>    3.1287    0.0000 </r>
       <r>    3.6894    0.0000 </r>
       <r>    3.9281    0.0000 </r>
       <r>    4.1845    0.0000 </r>
      </set>
      <set comment="kpoint 18">
       <r>  -40.8634    1.0000 </r>
       <r>  -40.8604    1.0000 </r>
       <r>  -40.7439    1.0000 </r>
       <r>  -19.2222    1.0000 </r>
       <r>  -18.2504    1.0000 </r>
       <r>  -10.8101    1.0000 </r>
       <r>   -9.6022    1.0000 </r>
       <r>   -9.1755    1.0000 </r>
       <r>   -8.3340    1.0000 </r>
       <r>   -7.7417    1.0000 </r>
       <r>   -7.0227    1.0000 </r>
       <r>   -6.4156    1.0000 </r>
       <r>   -3.6942    0.0000 </r>
       <r>   -3.4461    0.0000 </r>
       <r>   -3.1031    0.0000 </r>
       <r>   -2.1434    0.0000 </r>
       <r>    1.2631    0.0000 </r>
       <r>    2.2679    0.0000 </r>
       <r>    2.7498    0.0000 </r>
       <r>    3.0797    0.0000 </r>
       <r>    3.4515    0.0000 </r>
       <r>    3.7148    0.0000 </r>
       <r>    3.9293    0.0000 </r>
       <r>    4.0878    0.0000 </r>
      </set>
      <set comment="kpoint 19">
       <r>  -40.9083    1.0000 </r>
       <r>  -40.8514    1.0000 </r>
       <r>  -40.7549    1.0000 </r>
       <r>  -18.9973    1.0000 </r>
       <r>  -18.1497    1.0000 </r>
       <r>  -10.8149    1.0000 </r>
       <r>   -9.7470    1.0000 </r>
       <r>   -9.4687    1.0000 </r>
       <r>   -8.5219    1.0000 </r>
       <r>   -7.5568    1.0000 </r>
       <r>   -7.1712    1.0000 </r>
       <r>   -6.6139    1.0000 </r>
       <r>   -3.7096    0.0000 </r>
       <r>   -3.5099    0.0000 </r>
       <r>   -2.8818    0.0000 </r>
       <r>   -1.9605    0.0000 </r>
       <r>    1.5465    0.0000 </r>
       <r>    2.3897    0.0000 </r>
       <r>    2.8264    0.0000 </r>
       <r>    3.0905    0.0000 </r>
       <r>    3.4610    0.0000 </r>
       <r>    3.8922    0.0000 </r>
       <r>    4.0628    0.0000 </r>
       <r>    4.4530    0.0000 </r>
      </set>
      <set comment="kpoint 20">
       <r>  -40.9515    1.0000 </r>
       <r>  -40.8426    1.0000 </r>
       <r>  -40.7656    1.0000 </r>
       <r>  -18.7691    1.0000 </r>
       <r>  -18.0450    1.0000 </r>
       <r>  -10.9473    1.0000 </r>
       <r>   -9.8957    1.0000 </r>
       <r>   -9.6513    1.0000 </r>
       <r>   -8.6827    1.0000 </r>
       <r>   -7.4170    1.0000 </r>
       <r>   -7.2939    1.0000 </r>
       <r>   -6.7239    1.0000 </r>
       <r>   -3.7073    0.0000 </r>
       <r>   -3.5016    0.0000 </r>
       <r>   -2.6330    0.0000 </r>
       <r>   -1.8150    0.0000 </r>
       <r>    1.7926    0.0000 </r>
       <r>    2.2979    0.0000 </r>
       <r>    2.4864    0.0000 </r>
       <r>    3.1149    0.0000 </r>
       <r>    3.6739    0.0000 </r>
       <r>    4.1992    0.0000 </r>
       <r>    4.4028    0.0000 </r>
       <r>    4.8938    0.0000 </r>
      </set>
      <set comment="kpoint 21">
       <r>  -40.9899    1.0000 </r>
       <r>  -40.8346    1.0000 </r>
       <r>  -40.7751    1.0000 </r>
       <r>  -18.5549    1.0000 </r>
       <r>  -17.9424    1.0000 </r>
       <r>  -11.1394    1.0000 </r>
       <r>  -10.1280    1.0000 </r>
       <r>   -9.7069    1.0000 </r>
       <r>   -8.8116    1.0000 </r>
       <r>   -7.4806    1.0000 </r>
       <r>   -7.2274    1.0000 </r>
       <r>   -6.7087    1.0000 </r>
       <r>   -3.6990    0.0000 </r>
       <r>   -3.4286    0.0000 </r>
       <r>   -2.3926    0.0000 </r>
       <r>   -1.7133    0.0000 </r>
       <r>    1.6597    0.0000 </r>
       <r>    2.0710    0.0000 </r>
       <r>    2.4255    0.0000 </r>
       <r>    3.1847    0.0000 </r>
       <r>    4.0716    0.0000 </r>
       <r>    4.4145    0.0000 </r>
       <r>    4.8293    0.0000 </r>
       <r>    5.3065    0.0000 </r>
      </set>
      <set comment="kpoint 22">
       <r>  -41.0211    1.0000 </r>
       <r>  -40.8282    1.0000 </r>
       <r>  -40.7828    1.0000 </r>
       <r>  -18.3738    1.0000 </r>
       <r>  -17.8494    1.0000 </r>
       <r>  -11.3274    1.0000 </r>
       <r>  -10.3404    1.0000 </r>
       <r>   -9.7619    1.0000 </r>
       <r>   -8.9081    1.0000 </r>
       <r>   -7.5803    1.0000 </r>
       <r>   -7.1187    1.0000 </r>
       <r>   -6.6047    1.0000 </r>
       <r>   -3.6808    0.0000 </r>
       <r>   -3.3229    0.0000 </r>
       <r>   -2.1858    0.0000 </r>
       <r>   -1.6577    0.0000 </r>
       <r>    1.1188    0.0000 </r>
       <r>    2.1417    0.0000 </r>
       <r>    2.4509    0.0000 </r>
       <r>    3.3425    0.0000 </r>
       <r>    4.2876    0.0000 </r>
       <r>    4.7015    0.0000 </r>
       <r>    5.1881    0.0000 </r>
       <r>    5.6567    0.0000 </r>
      </set>
      <set comment="kpoint 23">
       <r>  -41.0430    1.0000 </r>
       <r>  -40.8236    1.0000 </r>
       <r>  -40.7883    1.0000 </r>
       <r>  -18.2436    1.0000 </r>
       <r>  -17.7761    1.0000 </r>
       <r>  -11.4730    1.0000 </r>
       <r>  -10.4944    1.0000 </r>
       <r>   -9.8228    1.0000 </r>
       <r>   -8.9723    1.0000 </r>
       <r>   -7.6507    1.0000 </r>
       <r>   -7.0309    1.0000 </r>
       <r>   -6.4799    1.0000 </r>
       <r>   -3.6613    0.0000 </r>
       <r>   -3.2149    0.0000 </r>
       <r>   -2.0287    0.0000 </r>
       <r>   -1.6433    0.0000 </r>
       <r>    0.6628    0.0000 </r>
       <r>    2.1815    0.0000 </r>
       <r>    2.5504    0.0000 </r>
       <r>    3.4342    0.0000 </r>
       <r>    4.3097    0.0000 </r>
       <r>    4.9584    0.0000 </r>
       <r>    5.4923    0.0000 </r>
       <r>    5.6360    0.0000 </r>
      </set>
      <set comment="kpoint 24">
       <r>  -41.0544    1.0000 </r>
       <r>  -40.8212    1.0000 </r>
       <r>  -40.7911    1.0000 </r>
       <r>  -18.1761    1.0000 </r>
       <r>  -17.7346    1.0000 </r>
       <r>  -11.5521    1.0000 </r>
       <r>  -10.5749    1.0000 </r>
       <r>   -9.8623    1.0000 </r>
       <r>   -9.0044    1.0000 </r>
       <r>   -7.6863    1.0000 </r>
       <r>   -6.9830    1.0000 </r>
       <r>   -6.3963    1.0000 </r>
       <r>   -3.6500    0.0000 </r>
       <r>   -3.1429    0.0000 </r>
       <r>   -1.9371    0.0000 </r>
       <r>   -1.6520    0.0000 </r>
       <r>    0.4015    0.0000 </r>
       <r>    2.2141    0.0000 </r>
       <r>    2.6316    0.0000 </r>
       <r>    3.4378    0.0000 </r>
       <r>    4.2699    0.0000 </r>
       <r>    5.1532    0.0000 </r>
       <r>    5.4193    0.0000 </r>
       <r>    5.9948    0.0000 </r>
      </set>
      <set comment="kpoint 25">
       <r>  -40.8782    1.0000 </r>
       <r>  -40.7740    1.0000 </r>
       <r>  -40.7230    1.0000 </r>
       <r>  -19.6313    1.0000 </r>
       <r>  -18.4296    1.0000 </r>
       <r>  -11.0960    1.0000 </r>
       <r>   -9.0584    1.0000 </r>
       <r>   -8.4901    1.0000 </r>
       <r>   -8.1871    1.0000 </r>
       <r>   -7.8624    1.0000 </r>
       <r>   -6.8191    1.0000 </r>
       <r>   -5.9948    1.0000 </r>
       <r>   -3.5038    0.0000 </r>
       <r>   -3.3010    0.0000 </r>
       <r>   -3.1970    0.0000 </r>
       <r>   -2.5751    0.0000 </r>
       <r>    0.7118    0.0000 </r>
       <r>    1.6171    0.0000 </r>
       <r>    2.1468    0.0000 </r>
       <r>    2.4410    0.0000 </r>
       <r>    2.8263    0.0000 </r>
       <r>    3.4011    0.0000 </r>
       <r>    3.9226    0.0000 </r>
       <r>    4.2461    0.0000 </r>
      </set>
      <set comment="kpoint 26">
       <r>  -40.8712    1.0000 </r>
       <r>  -40.8083    1.0000 </r>
       <r>  -40.7326    1.0000 </r>
       <r>  -19.4730    1.0000 </r>
       <r>  -18.3605    1.0000 </r>
       <r>  -10.9487    1.0000 </r>
       <r>   -9.3043    1.0000 </r>
       <r>   -8.7428    1.0000 </r>
       <r>   -8.2075    1.0000 </r>
       <r>   -7.9698    1.0000 </r>
       <r>   -6.7976    1.0000 </r>
       <r>   -6.1450    1.0000 </r>
       <r>   -3.6283    0.0000 </r>
       <r>   -3.3473    0.0000 </r>
       <r>   -3.3069    0.0000 </r>
       <r>   -2.3541    0.0000 </r>
       <r>    0.9397    0.0000 </r>
       <r>    2.0233    0.0000 </r>
       <r>    2.3913    0.0000 </r>
       <r>    2.7213    0.0000 </r>
       <r>    3.0600    0.0000 </r>
       <r>    3.6287    0.0000 </r>
       <r>    4.0175    0.0000 </r>
       <r>    4.1735    0.0000 </r>
      </set>
      <set comment="kpoint 27">
       <r>  -40.8630    1.0000 </r>
       <r>  -40.8479    1.0000 </r>
       <r>  -40.7439    1.0000 </r>
       <r>  -19.2819    1.0000 </r>
       <r>  -18.2764    1.0000 </r>
       <r>  -10.8178    1.0000 </r>
       <r>   -9.5322    1.0000 </r>
       <r>   -9.0227    1.0000 </r>
       <r>   -8.4365    1.0000 </r>
       <r>   -7.8390    1.0000 </r>
       <r>   -6.8578    1.0000 </r>
       <r>   -6.3383    1.0000 </r>
       <r>   -3.7342    0.0000 </r>
       <r>   -3.3977    0.0000 </r>
       <r>   -3.2728    0.0000 </r>
       <r>   -2.1305    0.0000 </r>
       <r>    1.2048    0.0000 </r>
       <r>    2.3167    0.0000 </r>
       <r>    2.6723    0.0000 </r>
       <r>    3.0856    0.0000 </r>
       <r>    3.3676    0.0000 </r>
       <r>    3.7883    0.0000 </r>
       <r>    3.9246    0.0000 </r>
       <r>    4.2258    0.0000 </r>
      </set>
      <set comment="kpoint 28">
       <r>  -40.8902    1.0000 </r>
       <r>  -40.8542    1.0000 </r>
       <r>  -40.7560    1.0000 </r>
       <r>  -19.0680    1.0000 </r>
       <r>  -18.1807    1.0000 </r>
       <r>  -10.7685    1.0000 </r>
       <r>   -9.6872    1.0000 </r>
       <r>   -9.3268    1.0000 </r>
       <r>   -8.6357    1.0000 </r>
       <r>   -7.6999    1.0000 </r>
       <r>   -6.9778    1.0000 </r>
       <r>   -6.5323    1.0000 </r>
       <r>   -3.7949    0.0000 </r>
       <r>   -3.4427    0.0000 </r>
       <r>   -3.1061    0.0000 </r>
       <r>   -1.9309    0.0000 </r>
       <r>    1.4961    0.0000 </r>
       <r>    2.4964    0.0000 </r>
       <r>    2.9662    0.0000 </r>
       <r>    3.1279    0.0000 </r>
       <r>    3.5875    0.0000 </r>
       <r>    3.8297    0.0000 </r>
       <r>    4.0290    0.0000 </r>
       <r>    4.3183    0.0000 </r>
      </set>
      <set comment="kpoint 29">
       <r>  -40.9320    1.0000 </r>
       <r>  -40.8454    1.0000 </r>
       <r>  -40.7681    1.0000 </r>
       <r>  -18.8438    1.0000 </r>
       <r>  -18.0782    1.0000 </r>
       <r>  -10.8459    1.0000 </r>
       <r>   -9.7887    1.0000 </r>
       <r>   -9.5904    1.0000 </r>
       <r>   -8.7807    1.0000 </r>
       <r>   -7.6030    1.0000 </r>
       <r>   -7.1222    1.0000 </r>
       <r>   -6.6581    1.0000 </r>
       <r>   -3.8014    0.0000 </r>
       <r>   -3.4451    0.0000 </r>
       <r>   -2.8822    0.0000 </r>
       <r>   -1.7726    0.0000 </r>
       <r>    1.7885    0.0000 </r>
       <r>    2.5674    0.0000 </r>
       <r>    2.6958    0.0000 </r>
       <r>    3.2390    0.0000 </r>
       <r>    3.6065    0.0000 </r>
       <r>    4.1286    0.0000 </r>
       <r>    4.2922    0.0000 </r>
       <r>    4.7348    0.0000 </r>
      </set>
      <set comment="kpoint 30">
       <r>  -40.9708    1.0000 </r>
       <r>  -40.8371    1.0000 </r>
       <r>  -40.7794    1.0000 </r>
       <r>  -18.6250    1.0000 </r>
       <r>  -17.9743    1.0000 </r>
       <r>  -11.0095    1.0000 </r>
       <r>  -10.0191    1.0000 </r>
       <r>   -9.6677    1.0000 </r>
       <r>   -8.8798    1.0000 </r>
       <r>   -7.5557    1.0000 </r>
       <r>   -7.2650    1.0000 </r>
       <r>   -6.6648    1.0000 </r>
       <r>   -3.7579    0.0000 </r>
       <r>   -3.4143    0.0000 </r>
       <r>   -2.6381    0.0000 </r>
       <r>   -1.6669    0.0000 </r>
       <r>    1.9604    0.0000 </r>
       <r>    2.1983    0.0000 </r>
       <r>    2.6180    0.0000 </r>
       <r>    3.2682    0.0000 </r>
       <r>    3.9477    0.0000 </r>
       <r>    4.3885    0.0000 </r>
       <r>    4.6768    0.0000 </r>
       <r>    5.1686    0.0000 </r>
      </set>
      <set comment="kpoint 31">
       <r>  -41.0039    1.0000 </r>
       <r>  -40.8301    1.0000 </r>
       <r>  -40.7890    1.0000 </r>
       <r>  -18.4296    1.0000 </r>
       <r>  -17.8758    1.0000 </r>
       <r>  -11.1916    1.0000 </r>
       <r>  -10.2709    1.0000 </r>
       <r>   -9.7095    1.0000 </r>
       <r>   -8.9433    1.0000 </r>
       <r>   -7.5505    1.0000 </r>
       <r>   -7.3574    1.0000 </r>
       <r>   -6.5768    1.0000 </r>
       <r>   -3.6914    0.0000 </r>
       <r>   -3.3512    0.0000 </r>
       <r>   -2.4013    0.0000 </r>
       <r>   -1.6209    0.0000 </r>
       <r>    1.4769    0.0000 </r>
       <r>    2.2992    0.0000 </r>
       <r>    2.6273    0.0000 </r>
       <r>    3.3756    0.0000 </r>
       <r>    4.2952    0.0000 </r>
       <r>    4.6091    0.0000 </r>
       <r>    5.0602    0.0000 </r>
       <r>    5.4048    0.0000 </r>
      </set>
      <set comment="kpoint 32">
       <r>  -41.0291    1.0000 </r>
       <r>  -40.8246    1.0000 </r>
       <r>  -40.7964    1.0000 </r>
       <r>  -18.2761    1.0000 </r>
       <r>  -17.7915    1.0000 </r>
       <r>  -11.3485    1.0000 </r>
       <r>  -10.4696    1.0000 </r>
       <r>   -9.7730    1.0000 </r>
       <r>   -8.9807    1.0000 </r>
       <r>   -7.6121    1.0000 </r>
       <r>   -7.3461    1.0000 </r>
       <r>   -6.4504    1.0000 </r>
       <r>   -3.6470    0.0000 </r>
       <r>   -3.2495    0.0000 </r>
       <r>   -2.1884    0.0000 </r>
       <r>   -1.6352    0.0000 </r>
       <r>    0.9614    0.0000 </r>
       <r>    2.4207    0.0000 </r>
       <r>    2.7178    0.0000 </r>
       <r>    3.4845    0.0000 </r>
       <r>    4.3940    0.0000 </r>
       <r>    4.8276    0.0000 </r>
       <r>    5.2054    0.0000 </r>
       <r>    5.5118    0.0000 </r>
      </set>
      <set comment="kpoint 33">
       <r>  -41.0449    1.0000 </r>
       <r>  -40.8212    1.0000 </r>
       <r>  -40.8010    1.0000 </r>
       <r>  -18.1790    1.0000 </r>
       <r>  -17.7328    1.0000 </r>
       <r>  -11.4536    1.0000 </r>
       <r>  -10.5952    1.0000 </r>
       <r>   -9.8306    1.0000 </r>
       <r>   -8.9995    1.0000 </r>
       <r>   -7.6749    1.0000 </r>
       <r>   -7.3068    1.0000 </r>
       <r>   -6.3392    1.0000 </r>
       <r>   -3.6371    0.0000 </r>
       <r>   -3.1416    0.0000 </r>
       <r>   -2.0103    0.0000 </r>
       <r>   -1.6996    0.0000 </r>
       <r>    0.5941    0.0000 </r>
       <r>    2.5132    0.0000 </r>
       <r>    2.8408    0.0000 </r>
       <r>    3.4966    0.0000 </r>
       <r>    4.3275    0.0000 </r>
       <r>    4.8928    0.0000 </r>
       <r>    5.3177    0.0000 </r>
       <r>    5.9144    0.0000 </r>
      </set>
      <set comment="kpoint 34">
       <r>  -41.0503    1.0000 </r>
       <r>  -40.8201    1.0000 </r>
       <r>  -40.8026    1.0000 </r>
       <r>  -18.1459    1.0000 </r>
       <r>  -17.7115    1.0000 </r>
       <r>  -11.4906    1.0000 </r>
       <r>  -10.6381    1.0000 </r>
       <r>   -9.8533    1.0000 </r>
       <r>   -9.0051    1.0000 </r>
       <r>   -7.6983    1.0000 </r>
       <r>   -7.2904    1.0000 </r>
       <r>   -6.2944    1.0000 </r>
       <r>   -3.6385    0.0000 </r>
       <r>   -3.0943    0.0000 </r>
       <r>   -1.9107    0.0000 </r>
       <r>   -1.7628    0.0000 </r>
       <r>    0.4595    0.0000 </r>
       <r>    2.5565    0.0000 </r>
       <r>    2.8990    0.0000 </r>
       <r>    3.4763    0.0000 </r>
       <r>    4.2689    0.0000 </r>
       <r>    4.9182    0.0000 </r>
       <r>    5.4088    0.0000 </r>
       <r>    6.0626    0.0000 </r>
      </set>
      <set comment="kpoint 35">
       <r>  -40.8639    1.0000 </r>
       <r>  -40.8422    1.0000 </r>
       <r>  -40.7444    1.0000 </r>
       <r>  -19.3021    1.0000 </r>
       <r>  -18.2851    1.0000 </r>
       <r>  -10.8212    1.0000 </r>
       <r>   -9.5045    1.0000 </r>
       <r>   -8.9412    1.0000 </r>
       <r>   -8.5095    1.0000 </r>
       <r>   -7.8762    1.0000 </r>
       <r>   -6.7866    1.0000 </r>
       <r>   -6.3090    1.0000 </r>
       <r>   -3.7501    0.0000 </r>
       <r>   -3.3835    0.0000 </r>
       <r>   -3.3431    0.0000 </r>
       <r>   -2.1199    0.0000 </r>
       <r>    1.1864    0.0000 </r>
       <r>    2.3486    0.0000 </r>
       <r>    2.6467    0.0000 </r>
       <r>    3.0740    0.0000 </r>
       <r>    3.3324    0.0000 </r>
       <r>    3.8230    0.0000 </r>
       <r>    3.9081    0.0000 </r>
       <r>    4.3622    0.0000 </r>
      </set>
      <set comment="kpoint 36">
       <r>  -40.8794    1.0000 </r>
       <r>  -40.8556    1.0000 </r>
       <r>  -40.7579    1.0000 </r>
       <r>  -19.1043    1.0000 </r>
       <r>  -18.1964    1.0000 </r>
       <r>  -10.7441    1.0000 </r>
       <r>   -9.6493    1.0000 </r>
       <r>   -9.1939    1.0000 </r>
       <r>   -8.7723    1.0000 </r>
       <r>   -7.7854    1.0000 </r>
       <r>   -6.8450    1.0000 </r>
       <r>   -6.4815    1.0000 </r>
       <r>   -3.8438    0.0000 </r>
       <r>   -3.4109    0.0000 </r>
       <r>   -3.2561    0.0000 </r>
       <r>   -1.9028    0.0000 </r>
       <r>    1.4713    0.0000 </r>
       <r>    2.5896    0.0000 </r>
       <r>    2.9413    0.0000 </r>
       <r>    3.2737    0.0000 </r>
       <r>    3.6247    0.0000 </r>
       <r>    3.8310    0.0000 </r>
       <r>    4.1340    0.0000 </r>
       <r>    4.2704    0.0000 </r>
      </set>
      <set comment="kpoint 37">
       <r>  -40.9174    1.0000 </r>
       <r>  -40.8471    1.0000 </r>
       <r>  -40.7722    1.0000 </r>
       <r>  -18.8904    1.0000 </r>
       <r>  -18.0983    1.0000 </r>
       <r>  -10.7716    1.0000 </r>
       <r>   -9.7129    1.0000 </r>
       <r>   -9.5030    1.0000 </r>
       <r>   -8.9209    1.0000 </r>
       <r>   -7.7550    1.0000 </r>
       <r>   -6.9550    1.0000 </r>
       <r>   -6.6103    1.0000 </r>
       <r>   -3.8737    0.0000 </r>
       <r>   -3.4057    0.0000 </r>
       <r>   -3.0912    0.0000 </r>
       <r>   -1.7264    0.0000 </r>
       <r>    1.7786    0.0000 </r>
       <r>    2.7416    0.0000 </r>
       <r>    2.9639    0.0000 </r>
       <r>    3.2851    0.0000 </r>
       <r>    3.7476    0.0000 </r>
       <r>    4.0843    0.0000 </r>
       <r>    4.2677    0.0000 </r>
       <r>    4.6226    0.0000 </r>
      </set>
      <set comment="kpoint 38">
       <r>  -40.9537    1.0000 </r>
       <r>  -40.8389    1.0000 </r>
       <r>  -40.7861    1.0000 </r>
       <r>  -18.6744    1.0000 </r>
       <r>  -17.9957    1.0000 </r>
       <r>  -10.8927    1.0000 </r>
       <r>   -9.9086    1.0000 </r>
       <r>   -9.6300    1.0000 </r>
       <r>   -8.9929    1.0000 </r>
       <r>   -7.7834    1.0000 </r>
       <r>   -7.1054    1.0000 </r>
       <r>   -6.6390    1.0000 </r>
       <r>   -3.8258    0.0000 </r>
       <r>   -3.3847    0.0000 </r>
       <r>   -2.8797    0.0000 </r>
[...]
       <r>     4.8486     1.4781    22.4338 </r>
       <r>     4.8591     1.4089    22.4486 </r>
       <r>     4.8695     1.3309    22.4625 </r>
       <r>     4.8800     1.2654    22.4758 </r>
       <r>     4.8905     1.2263    22.4886 </r>
       <r>     4.9009     1.2174    22.5013 </r>
       <r>     4.9114     1.2338    22.5143 </r>
       <r>     4.9219     1.2658    22.5275 </r>
       <r>     4.9324     1.3014    22.5411 </r>
       <r>     4.9428     1.3277    22.5550 </r>
       <r>     4.9533     1.3339    22.5690 </r>
       <r>     4.9638     1.3142    22.5828 </r>
       <r>     4.9742     1.2724    22.5961 </r>
       <r>     4.9847     1.2223    22.6089 </r>
       <r>     4.9952     1.1848    22.6213 </r>
       <r>     5.0057     1.1791    22.6337 </r>
       <r>     5.0161     1.2140    22.6464 </r>
       <r>     5.0266     1.2825    22.6598 </r>
       <r>     5.0371     1.3634    22.6741 </r>
       <r>     5.0476     1.4299    22.6891 </r>
       <r>     5.0580     1.4603    22.7043 </r>
       <r>     5.0685     1.4463    22.7195 </r>
       <r>     5.0790     1.3950    22.7341 </r>
       <r>     5.0894     1.3238    22.7480 </r>
       <r>     5.0999     1.2530    22.7611 </r>
       <r>     5.1104     1.1994    22.7736 </r>
       <r>     5.1209     1.1725    22.7859 </r>
       <r>     5.1313     1.1748    22.7982 </r>
       <r>     5.1418     1.2040    22.8108 </r>
       <r>     5.1523     1.2542    22.8240 </r>
       <r>     5.1627     1.3172    22.8378 </r>
       <r>     5.1732     1.3818    22.8522 </r>
       <r>     5.1837     1.4347    22.8673 </r>
       <r>     5.1942     1.4622    22.8826 </r>
       <r>     5.2046     1.4533    22.8978 </r>
       <r>     5.2151     1.4049    22.9125 </r>
       <r>     5.2256     1.3245    22.9264 </r>
       <r>     5.2360     1.2297    22.9392 </r>
       <r>     5.2465     1.1437    22.9512 </r>
       <r>     5.2570     1.0874    22.9626 </r>
       <r>     5.2675     1.0722    22.9738 </r>
       <r>     5.2779     1.0951    22.9853 </r>
       <r>     5.2884     1.1399    22.9972 </r>
       <r>     5.2989     1.1819    23.0096 </r>
       <r>     5.3093     1.1971    23.0221 </r>
       <r>     5.3198     1.1712    23.0344 </r>
       <r>     5.3303     1.1057    23.0460 </r>
       <r>     5.3408     1.0190    23.0567 </r>
       <r>     5.3512     0.9403    23.0665 </r>
       <r>     5.3617     0.8998    23.0759 </r>
       <r>     5.3722     0.9184    23.0856 </r>
       <r>     5.3827     1.0004    23.0960 </r>
       <r>     5.3931     1.1329    23.1079 </r>
       <r>     5.4036     1.2917    23.1214 </r>
       <r>     5.4141     1.4509    23.1366 </r>
       <r>     5.4245     1.5922    23.1533 </r>
       <r>     5.4350     1.7091    23.1712 </r>
       <r>     5.4455     1.8053    23.1901 </r>
       <r>     5.4560     1.8872    23.2098 </r>
       <r>     5.4664     1.9561    23.2303 </r>
       <r>     5.4769     2.0028    23.2513 </r>
       <r>     5.4874     2.0095    23.2723 </r>
       <r>     5.4978     1.9564    23.2928 </r>
       <r>     5.5083     1.8317    23.3120 </r>
       <r>     5.5188     1.6384    23.3292 </r>
       <r>     5.5293     1.3972    23.3438 </r>
       <r>     5.5397     1.1422    23.3558 </r>
       <r>     5.5502     0.9118    23.3653 </r>
       <r>     5.5607     0.7393    23.3731 </r>
       <r>     5.5711     0.6451    23.3798 </r>
       <r>     5.5816     0.6336    23.3864 </r>
       <r>     5.5921     0.6936    23.3937 </r>
       <r>     5.6026     0.8021    23.4021 </r>
       <r>     5.6130     0.9286    23.4118 </r>
       <r>     5.6235     1.0413    23.4227 </r>
       <r>     5.6340     1.1128    23.4344 </r>
       <r>     5.6444     1.1262    23.4462 </r>
       <r>     5.6549     1.0788    23.4575 </r>
       <r>     5.6654     0.9825    23.4678 </r>
       <r>     5.6759     0.8600    23.4768 </r>
       <r>     5.6863     0.7371    23.4845 </r>
       <r>     5.6968     0.6354    23.4911 </r>
       <r>     5.7073     0.5673    23.4971 </r>
       <r>     5.7178     0.5357    23.5027 </r>
       <r>     5.7282     0.5379    23.5083 </r>
       <r>     5.7387     0.5700    23.5143 </r>
       <r>     5.7492     0.6296    23.5209 </r>
       <r>     5.7596     0.7160    23.5284 </r>
       <r>     5.7701     0.8268    23.5371 </r>
       <r>     5.7806     0.9544    23.5470 </r>
       <r>     5.7911     1.0848    23.5584 </r>
       <r>     5.8015     1.1994    23.5710 </r>
       <r>     5.8120     1.2801    23.5844 </r>
       <r>     5.8225     1.3157    23.5981 </r>
       <r>     5.8329     1.3052    23.6118 </r>
       <r>     5.8434     1.2575    23.6250 </r>
       <r>     5.8539     1.1883    23.6374 </r>
       <r>     5.8644     1.1135    23.6491 </r>
       <r>     5.8748     1.0457    23.6600 </r>
       <r>     5.8853     0.9911    23.6704 </r>
       <r>     5.8958     0.9502    23.6804 </r>
       <r>     5.9062     0.9190    23.6900 </r>
       <r>     5.9167     0.8916    23.6993 </r>
       <r>     5.9272     0.8626    23.7084 </r>
       <r>     5.9377     0.8288    23.7170 </r>
       <r>     5.9481     0.7898    23.7253 </r>
       <r>     5.9586     0.7470    23.7331 </r>
       <r>     5.9691     0.7014    23.7405 </r>
       <r>     5.9795     0.6524    23.7473 </r>
       <r>     5.9900     0.5980    23.7536 </r>
       <r>     6.0005     0.5369    23.7592 </r>
       <r>     6.0110     0.4706    23.7641 </r>
       <r>     6.0214     0.4047    23.7684 </r>
       <r>     6.0319     0.3476    23.7720 </r>
       <r>     6.0424     0.3084    23.7752 </r>
       <r>     6.0529     0.2949    23.7783 </r>
       <r>     6.0633     0.3123    23.7816 </r>
       <r>     6.0738     0.3626    23.7854 </r>
       <r>     6.0843     0.4435    23.7900 </r>
       <r>     6.0947     0.5465    23.7958 </r>
       <r>     6.1052     0.6570    23.8026 </r>
       <r>     6.1157     0.7552    23.8105 </r>
       <r>     6.1262     0.8218    23.8191 </r>
       <r>     6.1366     0.8447    23.8280 </r>
       <r>     6.1471     0.8235    23.8366 </r>
       <r>     6.1576     0.7690    23.8447 </r>
       <r>     6.1680     0.6987    23.8520 </r>
       <r>     6.1785     0.6287    23.8586 </r>
       <r>     6.1890     0.5687    23.8645 </r>
       <r>     6.1995     0.5206    23.8700 </r>
       <r>     6.2099     0.4827    23.8750 </r>
       <r>     6.2204     0.4537    23.8798 </r>
       <r>     6.2309     0.4363    23.8844 </r>
       <r>     6.2413     0.4352    23.8889 </r>
       <r>     6.2518     0.4538    23.8937 </r>
       <r>     6.2623     0.4900    23.8988 </r>
       <r>     6.2728     0.5356    23.9044 </r>
       <r>     6.2832     0.5797    23.9105 </r>
       <r>     6.2937     0.6130    23.9169 </r>
       <r>     6.3042     0.6318    23.9235 </r>
       <r>     6.3146     0.6374    23.9302 </r>
       <r>     6.3251     0.6333    23.9368 </r>
       <r>     6.3356     0.6209    23.9433 </r>
       <r>     6.3461     0.5987    23.9496 </r>
       <r>     6.3565     0.5637    23.9555 </r>
       <r>     6.3670     0.5152    23.9609 </r>
       <r>     6.3775     0.4574    23.9657 </r>
       <r>     6.3880     0.3987    23.9698 </r>
       <r>     6.3984     0.3485    23.9735 </r>
       <r>     6.4089     0.3131    23.9768 </r>
       <r>     6.4194     0.2928    23.9798 </r>
       <r>     6.4298     0.2819    23.9828 </r>
       <r>     6.4403     0.2717    23.9856 </r>
       <r>     6.4508     0.2547    23.9883 </r>
       <r>     6.4613     0.2272    23.9907 </r>
       <r>     6.4717     0.1913    23.9927 </r>
       <r>     6.4822     0.1524    23.9943 </r>
       <r>     6.4927     0.1167    23.9955 </r>
       <r>     6.5031     0.0886    23.9964 </r>
       <r>     6.5136     0.0692    23.9972 </r>
       <r>     6.5241     0.0571    23.9978 </r>
       <r>     6.5346     0.0493    23.9983 </r>
       <r>     6.5450     0.0429    23.9987 </r>
       <r>     6.5555     0.0363    23.9991 </r>
       <r>     6.5660     0.0290    23.9994 </r>
       <r>     6.5764     0.0216    23.9996 </r>
       <r>     6.5869     0.0148    23.9998 </r>
       <r>     6.5974     0.0094    23.9999 </r>
       <r>     6.6079     0.0054    23.9999 </r>
       <r>     6.6183     0.0029    24.0000 </r>
       <r>     6.6288     0.0014    24.0000 </r>
       <r>     6.6393     0.0006    24.0000 </r>
       <r>     6.6497     0.0003    24.0000 </r>
       <r>     6.6602     0.0001    24.0000 </r>
       <r>     6.6707     0.0000    24.0000 </r>
       <r>     6.6812     0.0000    24.0000 </r>
       <r>     6.6916     0.0000    24.0000 </r>
       <r>     6.7021     0.0000    24.0000 </r>
       <r>     6.7126     0.0000    24.0000 </r>
       <r>     6.7230     0.0000    24.0000 </r>
       <r>     6.7335     0.0000    24.0000 </r>
       <r>     6.7440     0.0000    24.0000 </r>
       <r>     6.7545     0.0000    24.0000 </r>
       <r>     6.7649     0.0000    24.0000 </r>
       <r>     6.7754     0.0000    24.0000 </r>
       <r>     6.7859     0.0000    24.0000 </r>
       <r>     6.7964     0.0000    24.0000 </r>
       <r>     6.8068     0.0000    24.0000 </r>
       <r>     6.8173     0.0000    24.0000 </r>
       <r>     6.8278     0.0000    24.0000 </r>
       <r>     6.8382     0.0000    24.0000 </r>
       <r>     6.8487     0.0000    24.0000 </r>
       <r>     6.8592     0.0000    24.0000 </r>
       <r>     6.8697     0.0000    24.0000 </r>
       <r>     6.8801     0.0000    24.0000 </r>
       <r>     6.8906     0.0000    24.0000 </r>
       <r>     6.9011     0.0000    24.0000 </r>
       <r>     6.9115     0.0000    24.0000 </r>
       <r>     6.9220     0.0000    24.0000 </r>
       <r>     6.9325     0.0000    24.0000 </r>
       <r>     6.9430     0.0000    24.0000 </r>
       <r>     6.9534     0.0000    24.0000 </r>
       <r>     6.9639     0.0000    24.0000 </r>
       <r>     6.9744     0.0000    24.0000 </r>
       <r>     6.9848     0.0000    24.0000 </r>
       <r>     6.9953     0.0000    24.0000 </r>
       <r>     7.0058     0.0000    24.0000 </r>
       <r>     7.0163     0.0000    24.0000 </r>
       <r>     7.0267     0.0000    24.0000 </r>
       <r>     7.0372     0.0000    24.0000 </r>
       <r>     7.0477     0.0000    24.0000 </r>
       <r>     7.0581     0.0000    24.0000 </r>
       <r>     7.0686     0.0000    24.0000 </r>
       <r>     7.0791     0.0000    24.0000 </r>
       <r>     7.0896     0.0000    24.0000 </r>
       <r>     7.1000     0.0000    24.0000 </r>
       <r>     7.1105     0.0000    24.0000 </r>
       <r>     7.1210     0.0000    24.0000 </r>
       <r>     7.1315     0.0000    24.0000 </r>
       <r>     7.1419     0.0000    24.0000 </r>
       <r>     7.1524     0.0000    24.0000 </r>
       <r>     7.1629     0.0000    24.0000 </r>
       <r>     7.1733     0.0000    24.0000 </r>
       <r>     7.1838     0.0000    24.0000 </r>
       <r>     7.1943     0.0000    24.0000 </r>
       <r>     7.2048     0.0000    24.0000 </r>
       <r>     7.2152     0.0000    24.0000 </r>
       <r>     7.2257     0.0000    24.0000 </r>
       <r>     7.2362     0.0000    24.0000 </r>
       <r>     7.2466     0.0000    24.0000 </r>
       <r>     7.2571     0.0000    24.0000 </r>
       <r>     7.2676     0.0000    24.0000 </r>
       <r>     7.2781     0.0000    24.0000 </r>
       <r>     7.2885     0.0000    24.0000 </r>
       <r>     7.2990     0.0000    24.0000 </r>
       <r>     7.3095     0.0000    24.0000 </r>
       <r>     7.3199     0.0000    24.0000 </r>
       <r>     7.3304     0.0000    24.0000 </r>
       <r>     7.3409     0.0000    24.0000 </r>
       <r>     7.3514     0.0000    24.0000 </r>
       <r>     7.3618     0.0000    24.0000 </r>
       <r>     7.3723     0.0000    24.0000 </r>
       <r>     7.3828     0.0000    24.0000 </r>
       <r>     7.3932     0.0000    24.0000 </r>
       <r>     7.4037     0.0000    24.0000 </r>
       <r>     7.4142     0.0000    24.0000 </r>
       <r>     7.4247     0.0000    24.0000 </r>
       <r>     7.4351     0.0000    24.0000 </r>
       <r>     7.4456     0.0000    24.0000 </r>
       <r>     7.4561     0.0000    24.0000 </r>
       <r>     7.4666     0.0000    24.0000 </r>
       <r>     7.4770     0.0000    24.0000 </r>
       <r>     7.4875     0.0000    24.0000 </r>
       <r>     7.4980     0.0000    24.0000 </r>
       <r>     7.5084     0.0000    24.0000 </r>
       <r>     7.5189     0.0000    24.0000 </r>
       <r>     7.5294     0.0000    24.0000 </r>
       <r>     7.5399     0.0000    24.0000 </r>
       <r>     7.5503     0.0000    24.0000 </r>
       <r>     7.5608     0.0000    24.0000 </r>
       <r>     7.5713     0.0000    24.0000 </r>
       <r>     7.5817     0.0000    24.0000 </r>
       <r>     7.5922     0.0000    24.0000 </r>
       <r>     7.6027     0.0000    24.0000 </r>
       <r>     7.6132     0.0000    24.0000 </r>
       <r>     7.6236     0.0000    24.0000 </r>
       <r>     7.6341     0.0000    24.0000 </r>
       <r>     7.6446     0.0000    24.0000 </r>
       <r>     7.6550     0.0000    24.0000 </r>
       <r>     7.6655     0.0000    24.0000 </r>
       <r>     7.6760     0.0000    24.0000 </r>
       <r>     7.6865     0.0000    24.0000 </r>
       <r>     7.6969     0.0000    24.0000 </r>
       <r>     7.7074     0.0000    24.0000 </r>
       <r>     7.7179     0.0000    24.0000 </r>
       <r>     7.7283     0.0000    24.0000 </r>
       <r>     7.7388     0.0000    24.0000 </r>
       <r>     7.7493     0.0000    24.0000 </r>
       <r>     7.7598     0.0000    24.0000 </r>
       <r>     7.7702     0.0000    24.0000 </r>
       <r>     7.7807     0.0000    24.0000 </r>
       <r>     7.7912     0.0000    24.0000 </r>
       <r>     7.8017     0.0000    24.0000 </r>
       <r>     7.8121     0.0000    24.0000 </r>
       <r>     7.8226     0.0000    24.0000 </r>
       <r>     7.8331     0.0000    24.0000 </r>
       <r>     7.8435     0.0000    24.0000 </r>
       <r>     7.8540     0.0000    24.0000 </r>
       <r>     7.8645     0.0000    24.0000 </r>
       <r>     7.8750     0.0000    24.0000 </r>
       <r>     7.8854     0.0000    24.0000 </r>
       <r>     7.8959     0.0000    24.0000 </r>
       <r>     7.9064     0.0000    24.0000 </r>
       <r>     7.9168     0.0000    24.0000 </r>
       <r>     7.9273     0.0000    24.0000 </r>
       <r>     7.9378     0.0000    24.0000 </r>
       <r>     7.9483     0.0000    24.0000 </r>
       <r>     7.9587     0.0000    24.0000 </r>
       <r>     7.9692     0.0000    24.0000 </r>
       <r>     7.9797     0.0000    24.0000 </r>
       <r>     7.9901     0.0000    24.0000 </r>
       <r>     8.0006     0.0000    24.0000 </r>
       <r>     8.0111     0.0000    24.0000 </r>
       <r>     8.0216     0.0000    24.0000 </r>
       <r>     8.0320     0.0000    24.0000 </r>
       <r>     8.0425     0.0000    24.0000 </r>
       <r>     8.0530     0.0000    24.0000 </r>
       <r>     8.0634     0.0000    24.0000 </r>
       <r>     8.0739     0.0000    24.0000 </r>
       <r>     8.0844     0.0000    24.0000 </r>
       <r>     8.0949     0.0000    24.0000 </r>
       <r>     8.1053     0.0000    24.0000 </r>
       <r>     8.1158     0.0000    24.0000 </r>
       <r>     8.1263     0.0000    24.0000 </r>
       <r>     8.1368     0.0000    24.0000 </r>
       <r>     8.1472     0.0000    24.0000 </r>
       <r>     8.1577     0.0000    24.0000 </r>
       <r>     8.1682     0.0000    24.0000 </r>
       <r>     8.1786     0.0000    24.0000 </r>
       <r>     8.1891     0.0000    24.0000 </r>
       <r>     8.1996     0.0000    24.0000 </r>
       <r>     8.2101     0.0000    24.0000 </r>
       <r>     8.2205     0.0000    24.0000 </r>
       <r>     8.2310     0.0000    24.0000 </r>
       <r>     8.2415     0.0000    24.0000 </r>
       <r>     8.2519     0.0000    24.0000 </r>
       <r>     8.2624     0.0000    24.0000 </r>
       <r>     8.2729     0.0000    24.0000 </r>
       <r>     8.2834     0.0000    24.0000 </r>
       <r>     8.2938     0.0000    24.0000 </r>
       <r>     8.3043     0.0000    24.0000 </r>
       <r>     8.3148     0.0000    24.0000 </r>
       <r>     8.3252     0.0000    24.0000 </r>
       <r>     8.3357     0.0000    24.0000 </r>
       <r>     8.3462     0.0000    24.0000 </r>
       <r>     8.3567     0.0000    24.0000 </r>
       <r>     8.3671     0.0000    24.0000 </r>
       <r>     8.3776     0.0000    24.0000 </r>
       <r>     8.3881     0.0000    24.0000 </r>
       <r>     8.3985     0.0000    24.0000 </r>
       <r>     8.4090     0.0000    24.0000 </r>
       <r>     8.4195     0.0000    24.0000 </r>
       <r>     8.4300     0.0000    24.0000 </r>
       <r>     8.4404     0.0000    24.0000 </r>
       <r>     8.4509     0.0000    24.0000 </r>
       <r>     8.4614     0.0000    24.0000 </r>
       <r>     8.4719     0.0000    24.0000 </r>
       <r>     8.4823     0.0000    24.0000 </r>
       <r>     8.4928     0.0000    24.0000 </r>
       <r>     8.5033     0.0000    24.0000 </r>
       <r>     8.5137     0.0000    24.0000 </r>
       <r>     8.5242     0.0000    24.0000 </r>
       <r>     8.5347     0.0000    24.0000 </r>
       <r>     8.5452     0.0000    24.0000 </r>
       <r>     8.5556     0.0000    24.0000 </r>
       <r>     8.5661     0.0000    24.0000 </r>
       <r>     8.5766     0.0000    24.0000 </r>
       <r>     8.5870     0.0000    24.0000 </r>
       <r>     8.5975     0.0000    24.0000 </r>
       <r>     8.6080     0.0000    24.0000 </r>
       <r>     8.6185     0.0000    24.0000 </r>
       <r>     8.6289     0.0000    24.0000 </r>
       <r>     8.6394     0.0000    24.0000 </r>
       <r>     8.6499     0.0000    24.0000 </r>
       <r>     8.6603     0.0000    24.0000 </r>
       <r>     8.6708     0.0000    24.0000 </r>
       <r>     8.6813     0.0000    24.0000 </r>
       <r>     8.6918     0.0000    24.0000 </r>
       <r>     8.7022     0.0000    24.0000 </r>
       <r>     8.7127     0.0000    24.0000 </r>
       <r>     8.7232     0.0000    24.0000 </r>
       <r>     8.7336     0.0000    24.0000 </r>
       <r>     8.7441     0.0000    24.0000 </r>
       <r>     8.7546     0.0000    24.0000 </r>
       <r>     8.7651     0.0000    24.0000 </r>
       <r>     8.7755     0.0000    24.0000 </r>
       <r>     8.7860     0.0000    24.0000 </r>
       <r>     8.7965     0.0000    24.0000 </r>
       <r>     8.8070     0.0000    24.0000 </r>
       <r>     8.8174     0.0000    24.0000 </r>
       <r>     8.8279     0.0000    24.0000 </r>
       <r>     8.8384     0.0000    24.0000 </r>
       <r>     8.8488     0.0000    24.0000 </r>
       <r>     8.8593     0.0000    24.0000 </r>
       <r>     8.8698     0.0000    24.0000 </r>
       <r>     8.8803     0.0000    24.0000 </r>
       <r>     8.8907     0.0000    24.0000 </r>
       <r>     8.9012     0.0000    24.0000 </r>
       <r>     8.9117     0.0000    24.0000 </r>
      </set>
     </set>
    </array>
   </total>
  </dos>
 </calculation>
 <structure name="finalpos" >
  <crystal>
   <varray name="basis" >
    <v>       1.59817141      -2.76811338       0.00000000 </v>
    <v>       1.59817141       2.76811338       0.00000000 </v>
    <v>       0.00000000       0.00000000      34.96267827 </v>
   </varray>
   <i name="volume">    309.34415938 </i>
   <varray name="rec_basis" >
    <v>       0.31285756      -0.18062844       0.00000000 </v>
    <v>       0.31285756       0.18062844       0.00000000 </v>
    <v>       0.00000000       0.00000000       0.02860193 </v>
   </varray>
  </crystal>
  <varray name="positions" >
   <v>       0.66666700       0.33333300       0.10664700 </v>
   <v>       0.33333300       0.66666700       0.06198962 </v>
   <v>       0.33333300       0.66666700       0.15130538 </v>
  </varray>
 </structure>
</modeling>
