       N       E                     dE             d eps       ncg     rms          rms(c)
DAV:   1    -0.173425654534E+02   -0.17343E+02   -0.15973E+02 31920   0.774E+01
DAV:   2    -0.213006605857E+02   -0.39581E+01   -0.39310E+01 29648   0.230E+01
DAV:   3    -0.213707436651E+02   -0.70083E-01   -0.70044E-01 31576   0.391E+00
DAV:   4    -0.213723639344E+02   -0.16203E-02   -0.16200E-02 31784   0.507E-01
DAV:   5    -0.213724142591E+02   -0.50325E-04   -0.50324E-04 32512   0.868E-02
DAV:   6    -0.213724147707E+02   -0.51166E-06   -0.51139E-06 32736   0.825E-03
DAV:   7    -0.213724147799E+02   -0.91786E-08   -0.88683E-08 29792   0.107E-03
   1 F= -.21372415E+02 E0= -.21372415E+02  d E =-.105995E-19  mag=    -0.0000
