       N       E                     dE             d eps       ncg     rms          rms(c)
DAV:   1     0.161187148182E+03    0.16119E+03   -0.10405E+04  1160   0.951E+02
DAV:   2     0.239625772683E+01   -0.15879E+03   -0.15064E+03  1332   0.183E+02
DAV:   3    -0.165524278635E+02   -0.18949E+02   -0.18865E+02  1320   0.667E+01
DAV:   4    -0.168646436696E+02   -0.31222E+00   -0.31145E+00  1384   0.986E+00
DAV:   5    -0.168708139034E+02   -0.61702E-02   -0.61682E-02  1292   0.142E+00    0.257E+01
DAV:   6    -0.152344777249E+02    0.16363E+01   -0.17219E+01  1152   0.237E+01    0.112E+01
DAV:   7    -0.152870215135E+02   -0.52544E-01   -0.77221E+00  1152   0.153E+01    0.781E+00
DAV:   8    -0.151473276500E+02    0.13969E+00   -0.20308E+00  1096   0.831E+00    0.299E+00
DAV:   9    -0.152670609469E+02   -0.11973E+00   -0.14250E-01  1056   0.275E+00    0.222E+00
DAV:  10    -0.153367176981E+02   -0.69657E-01   -0.81385E-02  1112   0.202E+00    0.178E+00
DAV:  11    -0.154826939905E+02   -0.14598E+00   -0.53336E-02  1108   0.130E+00    0.146E+00
DAV:  12    -0.155728851605E+02   -0.90191E-01   -0.20532E-02  1024   0.874E-01    0.959E-01
DAV:  13    -0.156056925972E+02   -0.32807E-01   -0.11743E-02  1080   0.637E-01    0.638E-01
DAV:  14    -0.156135713811E+02   -0.78788E-02   -0.19061E-03  1196   0.299E-01    0.531E-01
DAV:  15    -0.156214254035E+02   -0.78540E-02   -0.19291E-03  1068   0.270E-01    0.395E-01
DAV:  16    -0.156282611916E+02   -0.68358E-02   -0.10255E-03  1040   0.166E-01    0.307E-01
DAV:  17    -0.156307752236E+02   -0.25140E-02   -0.92007E-04  1208   0.176E-01    0.199E-01
DAV:  18    -0.156316780257E+02   -0.90280E-03   -0.32070E-04  1156   0.119E-01    0.162E-01
DAV:  19    -0.156313929877E+02    0.28504E-03   -0.25390E-04  1216   0.102E-01    0.808E-02
DAV:  20    -0.156308987278E+02    0.49426E-03   -0.11830E-04  1224   0.535E-02    0.308E-02
DAV:  21    -0.156307165738E+02    0.18215E-03   -0.39153E-05  1032   0.403E-02    0.149E-02
DAV:  22    -0.156306503721E+02    0.66202E-04   -0.12333E-05  1052   0.272E-02    0.736E-03
DAV:  23    -0.156306980240E+02   -0.47652E-04   -0.22597E-06  1136   0.890E-03    0.296E-03
DAV:  24    -0.156307044939E+02   -0.64699E-05   -0.23599E-06  1144   0.536E-03    0.124E-03
DAV:  25    -0.156307254064E+02   -0.20912E-04   -0.17812E-06  1172   0.384E-03    0.576E-04
DAV:  26    -0.156307415333E+02   -0.16127E-04   -0.13126E-06  1044   0.304E-03    0.366E-04
DAV:  27    -0.156307497941E+02   -0.82608E-05   -0.14694E-06  1116   0.299E-03    0.243E-04
DAV:  28    -0.156307652902E+02   -0.15496E-04   -0.10485E-06  1032   0.292E-03    0.188E-04
DAV:  29    -0.156307721829E+02   -0.68927E-05   -0.12629E-07   908   0.131E-03    0.125E-04
DAV:  30    -0.156307690045E+02    0.31784E-05   -0.57200E-07  1012   0.166E-03    0.715E-05
DAV:  31    -0.156307673644E+02    0.16401E-05   -0.31793E-07  1092   0.141E-03    0.454E-05
DAV:  32    -0.156307641408E+02    0.32236E-05   -0.98702E-07  1040   0.193E-03    0.344E-05
DAV:  33    -0.156307532688E+02    0.10872E-04   -0.72302E-06  1116   0.445E-03    0.115E-04
DAV:  34    -0.156307509979E+02    0.22709E-05   -0.30099E-05   864   0.855E-03    0.349E-05
DAV:  35    -0.156307431499E+02    0.78480E-05   -0.19963E-06   840   0.419E-03    0.213E-05
DAV:  36    -0.156307383147E+02    0.48351E-05   -0.11576E-06   816   0.361E-03    0.262E-05
DAV:  37    -0.156307352285E+02    0.30862E-05   -0.25496E-06   840   0.513E-03    0.177E-05
DAV:  38    -0.156307330109E+02    0.22177E-05   -0.13212E-06   840   0.372E-03    0.185E-05
DAV:  39    -0.156307324885E+02    0.52240E-06   -0.27514E-07   900   0.211E-03    0.156E-05
DAV:  40    -0.156307325968E+02   -0.10831E-06   -0.19077E-07   888   0.179E-03    0.132E-05
DAV:  41    -0.156307325384E+02    0.58378E-07   -0.32089E-07   816   0.215E-03
   1 F= -.15630733E+02 E0= -.15630733E+02  d E =-.156307E+02  mag=     0.0000
       N       E                     dE             d eps       ncg     rms          rms(c)
DAV:   1    -0.156312198901E+02   -0.48729E-03   -0.13271E-02  1032   0.964E-01    0.219E-01
DAV:   2    -0.156298557869E+02    0.13641E-02   -0.20020E-03   996   0.324E-01    0.709E-02
DAV:   3    -0.156301785357E+02   -0.32275E-03   -0.64894E-04  1264   0.112E-01    0.356E-02
DAV:   4    -0.156300876803E+02    0.90855E-04   -0.16930E-04  1216   0.828E-02    0.255E-02
DAV:   5    -0.156303155544E+02   -0.22787E-03   -0.55290E-06  1024   0.152E-02    0.190E-02
DAV:   6    -0.156307759703E+02   -0.46042E-03   -0.54030E-06   996   0.115E-02    0.667E-03
DAV:   7    -0.156307922632E+02   -0.16293E-04   -0.28196E-06   968   0.121E-02    0.262E-03
DAV:   8    -0.156307941924E+02   -0.19292E-05   -0.13994E-07   800   0.255E-03    0.228E-03
DAV:   9    -0.156308003377E+02   -0.61452E-05   -0.77099E-07   868   0.399E-03    0.516E-04
DAV:  10    -0.156308030557E+02   -0.27180E-05   -0.15997E-07   812   0.191E-03    0.144E-04
DAV:  11    -0.156308061939E+02   -0.31382E-05   -0.37291E-07   824   0.252E-03    0.102E-04
DAV:  12    -0.156308083417E+02   -0.21478E-05   -0.17141E-07   936   0.172E-03    0.115E-04
DAV:  13    -0.156308134149E+02   -0.50732E-05   -0.33102E-07   856   0.212E-03    0.388E-05
DAV:  14    -0.156308167899E+02   -0.33751E-05   -0.45101E-07   940   0.222E-03    0.526E-05
DAV:  15    -0.156308163031E+02    0.48685E-06   -0.40138E-07   844   0.217E-03    0.169E-05
DAV:  16    -0.156308155194E+02    0.78371E-06   -0.22986E-07   796   0.180E-03    0.158E-05
DAV:  17    -0.156308146817E+02    0.83769E-06   -0.24058E-07   792   0.198E-03    0.148E-05
DAV:  18    -0.156308143372E+02    0.34447E-06   -0.18300E-07   784   0.167E-03    0.839E-06
DAV:  19    -0.156308131309E+02    0.12063E-05   -0.34350E-07   800   0.237E-03    0.555E-06
DAV:  20    -0.156308125015E+02    0.62942E-06   -0.11739E-07   824   0.144E-03    0.738E-06
DAV:  21    -0.156308125053E+02   -0.37642E-08   -0.15907E-08   924   0.571E-04
   2 F= -.15630813E+02 E0= -.15630813E+02  d E =-.799669E-04  mag=     0.0000
       N       E                     dE             d eps       ncg     rms          rms(c)
DAV:   1    -0.156308596123E+02   -0.47111E-04   -0.21791E-03  1024   0.356E-01    0.902E-02
DAV:   2    -0.156310791117E+02   -0.21950E-03   -0.20992E-04   960   0.105E-01    0.310E-02
DAV:   3    -0.156310038680E+02    0.75244E-04   -0.79721E-05   976   0.400E-02    0.191E-02
DAV:   4    -0.156310616353E+02   -0.57767E-04   -0.32377E-05   960   0.356E-02    0.505E-03
DAV:   5    -0.156309949778E+02    0.66657E-04   -0.19969E-06   984   0.875E-03    0.270E-03
DAV:   6    -0.156309207712E+02    0.74207E-04   -0.78267E-07   868   0.415E-03    0.123E-03
DAV:   7    -0.156308886711E+02    0.32100E-04   -0.15858E-06   840   0.501E-03    0.551E-04
DAV:   8    -0.156308871938E+02    0.14773E-05   -0.37211E-07   808   0.242E-03    0.585E-04
DAV:   9    -0.156308800325E+02    0.71614E-05   -0.53814E-06   864   0.656E-03    0.184E-04
DAV:  10    -0.156308781614E+02    0.18711E-05   -0.10248E-05   896   0.787E-03    0.147E-04
DAV:  11    -0.156308781090E+02    0.52443E-07   -0.27342E-06   872   0.488E-03    0.990E-05
DAV:  12    -0.156308771585E+02    0.95044E-06   -0.29091E-07   832   0.189E-03    0.766E-05
DAV:  13    -0.156308742176E+02    0.29409E-05   -0.10875E-06   800   0.301E-03    0.470E-05
DAV:  14    -0.156308725969E+02    0.16207E-05   -0.49737E-07   832   0.224E-03    0.199E-05
DAV:  15    -0.156308720288E+02    0.56811E-06   -0.12731E-07   904   0.138E-03    0.152E-05
DAV:  16    -0.156308709897E+02    0.10391E-05   -0.31257E-07   800   0.201E-03    0.202E-05
DAV:  17    -0.156308704325E+02    0.55721E-06   -0.18357E-07   812   0.165E-03    0.137E-05
DAV:  18    -0.156308693920E+02    0.10405E-05   -0.67843E-07   832   0.266E-03    0.181E-05
DAV:  19    -0.156308690034E+02    0.38858E-06   -0.29381E-07   804   0.173E-03    0.803E-06
DAV:  20    -0.156308688896E+02    0.11383E-06   -0.31620E-08   912   0.773E-04    0.508E-06
DAV:  21    -0.156308688054E+02    0.84254E-07   -0.32374E-08   768   0.777E-04
   3 F= -.15630869E+02 E0= -.15630869E+02  d E =-.563001E-04  mag=     0.0000
       N       E                     dE             d eps       ncg     rms          rms(c)
DAV:   1    -0.156308836633E+02   -0.14774E-04   -0.35405E-04  1008   0.157E-01    0.351E-02
DAV:   2    -0.156307128554E+02    0.17081E-03   -0.54990E-05   964   0.537E-02    0.116E-02
DAV:   3    -0.156307663555E+02   -0.53500E-04   -0.20825E-05   976   0.206E-02    0.559E-03
DAV:   4    -0.156307581793E+02    0.81761E-05   -0.54146E-06   976   0.151E-02    0.416E-03
DAV:   5    -0.156307946275E+02   -0.36448E-04   -0.26530E-07   852   0.323E-03    0.294E-03
DAV:   6    -0.156308746677E+02   -0.80040E-04   -0.56767E-07   920   0.365E-03    0.891E-04
DAV:   7    -0.156308702914E+02    0.43763E-05   -0.17431E-07   796   0.234E-03    0.574E-04
DAV:   8    -0.156308699278E+02    0.36356E-06   -0.26008E-08   840   0.969E-04    0.644E-04
DAV:   9    -0.156308702228E+02   -0.29501E-06   -0.11747E-07   784   0.158E-03    0.668E-04
DAV:  10    -0.156308720676E+02   -0.18448E-05   -0.16433E-07   800   0.175E-03    0.584E-04
DAV:  11    -0.156308721269E+02   -0.59304E-07   -0.50832E-08   808   0.994E-04
   4 F= -.15630872E+02 E0= -.15630872E+02  d E =-.332154E-05  mag=     0.0000
       N       E                     dE             d eps       ncg     rms          rms(c)
DAV:   1    -0.156308761923E+02   -0.41247E-05   -0.83763E-05   980   0.691E-02    0.118E-02
DAV:   2    -0.156308083142E+02    0.67878E-04   -0.11458E-05   960   0.238E-02    0.565E-03
DAV:   3    -0.156308308979E+02   -0.22584E-04   -0.27797E-06   960   0.840E-03    0.211E-03
DAV:   4    -0.156308324423E+02   -0.15443E-05   -0.83595E-07   960   0.623E-03    0.238E-03
DAV:   5    -0.156308475040E+02   -0.15062E-04   -0.17298E-07   792   0.239E-03    0.143E-03
DAV:   6    -0.156308862607E+02   -0.38757E-04   -0.18820E-07   788   0.226E-03    0.450E-04
DAV:   7    -0.156308823974E+02    0.38633E-05   -0.12387E-07   788   0.168E-03    0.222E-04
DAV:   8    -0.156308832144E+02   -0.81705E-06   -0.54732E-08   764   0.100E-03    0.222E-04
DAV:   9    -0.156308836743E+02   -0.45995E-06   -0.24553E-07   808   0.176E-03    0.120E-04
DAV:  10    -0.156308842585E+02   -0.58414E-06   -0.51686E-07   824   0.217E-03    0.149E-04
DAV:  11    -0.156308846961E+02   -0.43766E-06   -0.26641E-07   804   0.179E-03    0.186E-04
DAV:  12    -0.156308839274E+02    0.76870E-06   -0.10895E-07   784   0.134E-03    0.723E-05
DAV:  13    -0.156308835520E+02    0.37548E-06   -0.10232E-07   784   0.126E-03    0.275E-05
DAV:  14    -0.156308836513E+02   -0.99322E-07   -0.92563E-08   784   0.120E-03
   5 F= -.15630884E+02 E0= -.15630884E+02  d E =-.115244E-04  mag=     0.0000
