 running on    8 total cores
 distrk:  each k-point on    8 cores,    1 groups
 distr:  one band on    1 cores,    8 groups
 using from now: INCAR     
 vasp.5.4.1 05Feb16 (build Feb 01 2017 11:31:40) complex                        
  
 POSCAR found type information on POSCAR  Mo S 
 POSCAR found :  2 types and       3 ions
 scaLAPACK will be used

 ----------------------------------------------------------------------------- 
|                                                                             |
|           W    W    AA    RRRRR   N    N  II  N    N   GGGG   !!!           |
|           W    W   A  A   R    R  NN   N  II  NN   N  G    G  !!!           |
|           W    W  A    A  R    R  N N  N  II  N N  N  G       !!!           |
|           W WW W  AAAAAA  RRRRR   N  N N  II  N  N N  G  GGG   !            |
|           WW  WW  A    A  R   R   N   NN  II  N   NN  G    G                |
|           W    W  A    A  R    R  N    N  II  N    N   GGGG   !!!           |
|                                                                             |
|      For optimal performance we recommend to set                            |
|        NCORE= 4 - approx SQRT( number of cores)                             |
|      NCORE specifies how many cores store one orbital (NPAR=cpu/NCORE).     |
|      This setting can  greatly improve the performance of VASP for DFT.     |
|      The default, NPAR=number of cores might be grossly inefficient         |
|      on modern multi-core architectures or massively parallel machines.     |
|      Do your own testing !!!!                                               |
|      Unfortunately you need to use the default for GW and RPA calculations. |
|      (for HF NCORE is supported but not extensively tested yet)             |
|                                                                             |
 ----------------------------------------------------------------------------- 

 LDA part: xc-table for Pade appr. of Perdew
 POSCAR, INCAR and KPOINTS ok, starting setup
 FFT: planning ...
 WAVECAR not read
 entering main loop
       N       E                     dE             d eps       ncg     rms          rms(c)
DAV:   1     0.173459606818E+03    0.17346E+03   -0.11071E+04  6896   0.795E+02
DAV:   2    -0.408681582909E+01   -0.17755E+03   -0.17122E+03  7888   0.203E+02
DAV:   3    -0.220958550600E+02   -0.18009E+02   -0.17828E+02  7808   0.597E+01
DAV:   4    -0.226243761014E+02   -0.52852E+00   -0.52793E+00  8008   0.122E+01
DAV:   5    -0.226364224357E+02   -0.12046E-01   -0.12045E-01  8408   0.180E+00    0.919E+00
DAV:   6    -0.185020876449E+02    0.41343E+01   -0.14814E+01  7640   0.206E+01    0.473E+00
DAV:   7    -0.183191441405E+02    0.18294E+00   -0.41608E+00  7608   0.116E+01    0.362E+00
DAV:   8    -0.181073945693E+02    0.21175E+00   -0.72540E-01  6968   0.502E+00    0.251E+00
DAV:   9    -0.188097769403E+02   -0.70238E+00   -0.17951E-01  6968   0.218E+00    0.196E+00
DAV:  10    -0.198692006606E+02   -0.10594E+01   -0.62852E-01  7544   0.327E+00    0.146E+00
DAV:  11    -0.207075850395E+02   -0.83838E+00   -0.68141E-01  7864   0.330E+00    0.113E+00
DAV:  12    -0.212593390898E+02   -0.55175E+00   -0.70919E-01  8352   0.335E+00    0.780E-01
DAV:  13    -0.214411435978E+02   -0.18180E+00   -0.25461E-01  8192   0.176E+00    0.624E-01
DAV:  14    -0.214757025347E+02   -0.34559E-01   -0.49473E-02  7096   0.107E+00    0.473E-01
DAV:  15    -0.214650481120E+02    0.10654E-01   -0.56010E-02  8080   0.107E+00    0.344E-01
DAV:  16    -0.215488993546E+02   -0.83851E-01   -0.62218E-02  7896   0.109E+00    0.278E-01
DAV:  17    -0.216517640699E+02   -0.10286E+00   -0.69018E-02  8168   0.116E+00    0.208E-01
DAV:  18    -0.217232245098E+02   -0.71460E-01   -0.27812E-02  7864   0.751E-01    0.141E-01
DAV:  19    -0.217175758515E+02    0.56487E-02   -0.93689E-03  7040   0.509E-01    0.899E-02
DAV:  20    -0.216978492682E+02    0.19727E-01   -0.53671E-03  7192   0.346E-01    0.598E-02
DAV:  21    -0.216901866054E+02    0.76627E-02   -0.93248E-03  6936   0.428E-01    0.306E-02
DAV:  22    -0.216897823986E+02    0.40421E-03   -0.30502E-03  7608   0.242E-01    0.154E-02
DAV:  23    -0.216941554511E+02   -0.43731E-02   -0.45053E-04  6848   0.108E-01    0.764E-03
DAV:  24    -0.216967179393E+02   -0.25625E-02   -0.14425E-04  6752   0.577E-02    0.346E-03
DAV:  25    -0.216976375346E+02   -0.91960E-03   -0.45391E-05  6896   0.297E-02    0.198E-03
DAV:  26    -0.216979591270E+02   -0.32159E-03   -0.10845E-05  7368   0.151E-02    0.112E-03
DAV:  27    -0.216981654853E+02   -0.20636E-03   -0.37803E-06  7120   0.932E-03    0.666E-04
DAV:  28    -0.216981690472E+02   -0.35619E-05   -0.12056E-06  7048   0.513E-03    0.434E-04
DAV:  29    -0.216981263944E+02    0.42653E-04   -0.33665E-07  6920   0.333E-03    0.277E-04
DAV:  30    -0.216980652656E+02    0.61129E-04   -0.38715E-07  5952   0.273E-03    0.170E-04
DAV:  31    -0.216980345490E+02    0.30717E-04   -0.11705E-07  6128   0.165E-03    0.111E-04
DAV:  32    -0.216979931831E+02    0.41366E-04   -0.12672E-07  6096   0.166E-03    0.654E-05
DAV:  33    -0.216979813920E+02    0.11791E-04   -0.32273E-08  5096   0.860E-04    0.302E-05
DAV:  34    -0.216979791276E+02    0.22644E-05   -0.37533E-09  5184   0.404E-04    0.180E-05
DAV:  35    -0.216979758534E+02    0.32742E-05   -0.16750E-10  4840   0.230E-04    0.101E-05
DAV:  36    -0.216979760128E+02   -0.15936E-06    0.14876E-09  4920   0.133E-04    0.527E-06
DAV:  37    -0.216979765196E+02   -0.50684E-06    0.20657E-09  5232   0.685E-05    0.304E-06
DAV:  38    -0.216979764834E+02    0.36247E-07    0.22120E-09  5048   0.341E-05
   1 F= -.21697976E+02 E0= -.21697976E+02  d E =-.589563E-11  mag=    -0.0000
 writing wavefunctions
