<?xml version="1.0" encoding="ISO-8859-1"?>
<modeling>
 <generator>
  <i name="program" type="string">vasp </i>
  <i name="version" type="string">5.4.1  </i>
  <i name="subversion" type="string">05Feb16 (build Feb 01 2017 11:31:40) complex                          parallel </i>
  <i name="platform" type="string">IFC91_ompi </i>
  <i name="date" type="string">2025 10 21 </i>
  <i name="time" type="string">16:03:20 </i>
 </generator>
 <incar>
  <i type="string" name="SYSTEM"> MoS2 monolayer SCF-warm (SOC OFF)</i>
  <i type="int" name="ISTART">     0</i>
  <i type="string" name="PREC">accurate</i>
  <i type="string" name="ALGO"> Normal</i>
  <i type="logical" name="LSORBIT"> F  </i>
  <i type="logical" name="LNONCOLLINEAR"> F  </i>
  <i type="int" name="ISPIN">     2</i>
  <i type="int" name="ICHARG">     2</i>
  <i type="int" name="IBRION">    -1</i>
  <i name="EDIFF">      0.00000010</i>
  <i type="int" name="NSW">     0</i>
  <i type="int" name="ISIF">     2</i>
  <i name="ENCUT">    600.00000000</i>
  <i type="int" name="NEDOS">  5000</i>
  <i type="logical" name="LREAL"> F  </i>
  <i type="int" name="ISMEAR">     0</i>
  <i name="SIGMA">      0.05000000</i>
  <i type="logical" name="LWAVE"> T  </i>
  <i type="logical" name="LCHARG"> T  </i>
  <v type="int" name="KPOINT_BSE">    -1     0     0     0</v>
  <i type="logical" name="LDIPOL"> T  </i>
  <i type="int" name="IDIPOL">     3</i>
  <v name="DIPOL">      0.50000000      0.50000000      0.50000000</v>
 </incar>
 <kpoints>
  <generation param="Gamma">
   <v type="int" name="divisions">      24       24        1 </v>
   <v name="usershift">      0.00000000       0.00000000       0.00000000 </v>
   <v name="genvec1">      0.04166667       0.00000000       0.00000000 </v>
   <v name="genvec2">      0.00000000       0.04166667       0.00000000 </v>
   <v name="genvec3">      0.00000000       0.00000000       1.00000000 </v>
   <v name="shift">      0.00000000       0.00000000       0.00000000 </v>
  </generation>
  <varray name="kpointlist" >
   <v>       0.00000000       0.00000000       0.00000000 </v>
   <v>       0.04166667       0.00000000       0.00000000 </v>
   <v>       0.08333333       0.00000000       0.00000000 </v>
   <v>       0.12500000       0.00000000       0.00000000 </v>
   <v>       0.16666667       0.00000000       0.00000000 </v>
   <v>       0.20833333       0.00000000       0.00000000 </v>
   <v>       0.25000000       0.00000000       0.00000000 </v>
   <v>       0.29166667       0.00000000       0.00000000 </v>
   <v>       0.33333333       0.00000000       0.00000000 </v>
   <v>       0.37500000       0.00000000       0.00000000 </v>
   <v>       0.41666667       0.00000000       0.00000000 </v>
   <v>       0.45833333       0.00000000       0.00000000 </v>
   <v>       0.50000000       0.00000000       0.00000000 </v>
   <v>       0.04166667       0.04166667       0.00000000 </v>
   <v>       0.08333333       0.04166667       0.00000000 </v>
   <v>       0.12500000       0.04166667       0.00000000 </v>
   <v>       0.16666667       0.04166667       0.00000000 </v>
   <v>       0.20833333       0.04166667       0.00000000 </v>
   <v>       0.25000000       0.04166667       0.00000000 </v>
   <v>       0.29166667       0.04166667       0.00000000 </v>
   <v>       0.33333333       0.04166667       0.00000000 </v>
   <v>       0.37500000       0.04166667       0.00000000 </v>
   <v>       0.41666667       0.04166667       0.00000000 </v>
   <v>       0.45833333       0.04166667       0.00000000 </v>
   <v>       0.08333333       0.08333333       0.00000000 </v>
   <v>       0.12500000       0.08333333       0.00000000 </v>
   <v>       0.16666667       0.08333333       0.00000000 </v>
   <v>       0.20833333       0.08333333       0.00000000 </v>
   <v>       0.25000000       0.08333333       0.00000000 </v>
   <v>       0.29166667       0.08333333       0.00000000 </v>
   <v>       0.33333333       0.08333333       0.00000000 </v>
   <v>       0.37500000       0.08333333       0.00000000 </v>
   <v>       0.41666667       0.08333333       0.00000000 </v>
   <v>       0.45833333       0.08333333       0.00000000 </v>
   <v>       0.12500000       0.12500000       0.00000000 </v>
   <v>       0.16666667       0.12500000       0.00000000 </v>
   <v>       0.20833333       0.12500000       0.00000000 </v>
   <v>       0.25000000       0.12500000       0.00000000 </v>
   <v>       0.29166667       0.12500000       0.00000000 </v>
   <v>       0.33333333       0.12500000       0.00000000 </v>
   <v>       0.37500000       0.12500000       0.00000000 </v>
   <v>       0.41666667       0.12500000       0.00000000 </v>
   <v>       0.16666667       0.16666667       0.00000000 </v>
   <v>       0.20833333       0.16666667       0.00000000 </v>
   <v>       0.25000000       0.16666667       0.00000000 </v>
   <v>       0.29166667       0.16666667       0.00000000 </v>
   <v>       0.33333333       0.16666667       0.00000000 </v>
   <v>       0.37500000       0.16666667       0.00000000 </v>
   <v>       0.41666667       0.16666667       0.00000000 </v>
   <v>       0.20833333       0.20833333       0.00000000 </v>
   <v>       0.25000000       0.20833333       0.00000000 </v>
   <v>       0.29166667       0.20833333       0.00000000 </v>
   <v>       0.33333333       0.20833333       0.00000000 </v>
   <v>       0.37500000       0.20833333       0.00000000 </v>
   <v>       0.25000000       0.25000000       0.00000000 </v>
   <v>       0.29166667       0.25000000       0.00000000 </v>
   <v>       0.33333333       0.25000000       0.00000000 </v>
   <v>       0.37500000       0.25000000       0.00000000 </v>
   <v>       0.29166667       0.29166667       0.00000000 </v>
   <v>       0.33333333       0.29166667       0.00000000 </v>
   <v>       0.33333333       0.33333333       0.00000000 </v>
  </varray>
  <varray name="weights" >
   <v>       0.00173611 </v>
   <v>       0.01041667 </v>
   <v>       0.01041667 </v>
   <v>       0.01041667 </v>
   <v>       0.01041667 </v>
   <v>       0.01041667 </v>
   <v>       0.01041667 </v>
   <v>       0.01041667 </v>
   <v>       0.01041667 </v>
   <v>       0.01041667 </v>
   <v>       0.01041667 </v>
   <v>       0.01041667 </v>
   <v>       0.00520833 </v>
   <v>       0.01041667 </v>
   <v>       0.02083333 </v>
   <v>       0.02083333 </v>
   <v>       0.02083333 </v>
   <v>       0.02083333 </v>
   <v>       0.02083333 </v>
   <v>       0.02083333 </v>
   <v>       0.02083333 </v>
   <v>       0.02083333 </v>
   <v>       0.02083333 </v>
   <v>       0.02083333 </v>
   <v>       0.01041667 </v>
   <v>       0.02083333 </v>
   <v>       0.02083333 </v>
   <v>       0.02083333 </v>
   <v>       0.02083333 </v>
   <v>       0.02083333 </v>
   <v>       0.02083333 </v>
   <v>       0.02083333 </v>
   <v>       0.02083333 </v>
   <v>       0.01041667 </v>
   <v>       0.01041667 </v>
   <v>       0.02083333 </v>
   <v>       0.02083333 </v>
   <v>       0.02083333 </v>
   <v>       0.02083333 </v>
   <v>       0.02083333 </v>
   <v>       0.02083333 </v>
   <v>       0.02083333 </v>
   <v>       0.01041667 </v>
   <v>       0.02083333 </v>
   <v>       0.02083333 </v>
   <v>       0.02083333 </v>
   <v>       0.02083333 </v>
   <v>       0.02083333 </v>
   <v>       0.01041667 </v>
   <v>       0.01041667 </v>
   <v>       0.02083333 </v>
   <v>       0.02083333 </v>
   <v>       0.02083333 </v>
   <v>       0.02083333 </v>
   <v>       0.01041667 </v>
   <v>       0.02083333 </v>
   <v>       0.02083333 </v>
   <v>       0.01041667 </v>
   <v>       0.01041667 </v>
   <v>       0.02083333 </v>
   <v>       0.00347222 </v>
  </varray>
 </kpoints>
 <parameters>
  <separator name="general" >
   <i type="string" name="SYSTEM">MoS2 monolayer SCF-warm (SOC OFF)</i>
   <i type="logical" name="LCOMPAT"> F  </i>
  </separator>
  <separator name="electronic" >
   <i type="string" name="PREC">accura</i>
   <i name="ENMAX">    600.00000000</i>
   <i name="ENAUG">    392.42700000</i>
   <i name="EDIFF">      0.00000010</i>
   <i type="int" name="IALGO">    38</i>
   <i type="int" name="IWAVPR">    10</i>
   <i type="int" name="NBANDS">    24</i>
   <i name="NELECT">     24.00000000</i>
   <i type="int" name="TURBO">     0</i>
   <i type="int" name="IRESTART">     0</i>
   <i type="int" name="NREBOOT">     0</i>
   <i type="int" name="NMIN">     0</i>
   <i name="EREF">      0.00000000</i>
   <separator name="electronic smearing" >
    <i type="int" name="ISMEAR">     0</i>
    <i name="SIGMA">      0.05000000</i>
    <i name="KSPACING">      0.50000000</i>
    <i type="logical" name="KGAMMA"> T  </i>
   </separator>
   <separator name="electronic projectors" >
    <i type="logical" name="LREAL"> F  </i>
    <v name="ROPT">      0.00000000      0.00000000</v>
    <i type="int" name="LMAXPAW">  -100</i>
    <i type="int" name="LMAXMIX">     2</i>
    <i type="logical" name="NLSPLINE"> F  </i>
   </separator>
   <separator name="electronic startup" >
    <i type="int" name="ISTART">     0</i>
    <i type="int" name="ICHARG">     2</i>
    <i type="int" name="INIWAV">     1</i>
   </separator>
   <separator name="electronic spin" >
    <i type="int" name="ISPIN">     2</i>
    <i type="logical" name="LNONCOLLINEAR"> F  </i>
    <v name="MAGMOM">      1.00000000      1.00000000      1.00000000</v>
    <i name="NUPDOWN">     -1.00000000</i>
    <i type="logical" name="LSORBIT"> F  </i>
    <v name="SAXIS">      0.00000000      0.00000000      1.00000000</v>
    <i type="logical" name="LSPIRAL"> F  </i>
    <v name="QSPIRAL">      0.00000000      0.00000000      0.00000000</v>
    <i type="logical" name="LZEROZ"> F  </i>
   </separator>
   <separator name="electronic exchange-correlation" >
    <i type="logical" name="LASPH"> F  </i>
    <i type="logical" name="LMETAGGA"> F  </i>
   </separator>
   <separator name="electronic convergence" >
    <i type="int" name="NELM">    60</i>
    <i type="int" name="NELMDL">    -5</i>
    <i type="int" name="NELMIN">     2</i>
    <i name="ENINI">    600.00000000</i>
    <separator name="electronic convergence detail" >
     <i type="logical" name="LDIAG"> T  </i>
     <i type="logical" name="LSUBROT"> F  </i>
     <i name="WEIMIN">      0.00000000</i>
     <i name="EBREAK">      0.00000000</i>
     <i name="DEPER">      0.30000000</i>
     <i type="int" name="NRMM">     4</i>
     <i name="TIME">      0.40000000</i>
    </separator>
   </separator>
   <separator name="electronic mixer" >
    <i name="AMIX">      0.40000000</i>
    <i name="BMIX">      1.00000000</i>
    <i name="AMIN">      0.10000000</i>
    <i name="AMIX_MAG">      1.60000000</i>
    <i name="BMIX_MAG">      1.00000000</i>
    <separator name="electronic mixer details" >
     <i type="int" name="IMIX">     4</i>
     <i type="logical" name="MIXFIRST"> F  </i>
     <i type="int" name="MAXMIX">   -45</i>
     <i name="WC">    100.00000000</i>
     <i type="int" name="INIMIX">     1</i>
     <i type="int" name="MIXPRE">     1</i>
     <i type="int" name="MREMOVE">     5</i>
    </separator>
   </separator>
   <separator name="electronic dipolcorrection" >
    <i type="logical" name="LDIPOL"> T  </i>
    <i type="logical" name="LMONO"> F  </i>
    <i type="int" name="IDIPOL">     3</i>
    <i name="EPSILON">      1.00000000</i>
    <v name="DIPOL">      0.50000000      0.50000000      0.50000000</v>
    <i name="EFIELD">      0.00000000</i>
   </separator>
  </separator>
  <separator name="grids" >
   <i type="int" name="NGX">    28</i>
   <i type="int" name="NGY">    28</i>
   <i type="int" name="NGZ">   280</i>
   <i type="int" name="NGXF">    56</i>
   <i type="int" name="NGYF">    56</i>
   <i type="int" name="NGZF">   560</i>
   <i type="logical" name="ADDGRID"> F  </i>
  </separator>
  <separator name="ionic" >
   <i type="int" name="NSW">     0</i>
   <i type="int" name="IBRION">    -1</i>
   <i type="int" name="ISIF">     2</i>
   <i name="PSTRESS">      0.00000000</i>
   <i name="EDIFFG">      0.00000100</i>
   <i type="int" name="NFREE">     0</i>
   <i name="POTIM">      0.50000000</i>
   <i name="SMASS">     -3.00000000</i>
   <i name="SCALEE">      1.00000000</i>
  </separator>
  <separator name="ionic md" >
   <i name="TEBEG">      0.00010000</i>
   <i name="TEEND">      0.00010000</i>
   <i type="int" name="NBLOCK">     1</i>
   <i type="int" name="KBLOCK">     1</i>
   <i type="int" name="NPACO">   256</i>
   <i name="APACO">     16.00000000</i>
  </separator>
  <separator name="symmetry" >
   <i type="int" name="ISYM">     2</i>
   <i name="SYMPREC">      0.00001000</i>
  </separator>
  <separator name="dos" >
   <i type="logical" name="LORBIT"> F  </i>
   <v name="RWIGS">     -1.00000000     -1.00000000</v>
   <i type="int" name="NEDOS">  5000</i>
   <i name="EMIN">     10.00000000</i>
   <i name="EMAX">    -10.00000000</i>
   <i name="EFERMI">      0.00000000</i>
  </separator>
  <separator name="writing" >
   <i type="int" name="NWRITE">     2</i>
   <i type="logical" name="LWAVE"> T  </i>
   <i type="logical" name="LCHARG"> T  </i>
   <i type="logical" name="LPARD"> F  </i>
   <i type="logical" name="LVTOT"> F  </i>
   <i type="logical" name="LVHAR"> F  </i>
   <i type="logical" name="LELF"> F  </i>
   <i type="logical" name="LOPTICS"> F  </i>
   <v name="STM">      0.00000000      0.00000000      0.00000000      0.00000000      0.00000000      0.00000000      0.00000000</v>
  </separator>
  <separator name="performance" >
   <i type="int" name="NPAR">     8</i>
   <i type="int" name="NSIM">     4</i>
   <i type="int" name="NBLK">    -1</i>
   <i type="logical" name="LPLANE"> T  </i>
   <i type="logical" name="LSCALAPACK"> T  </i>
   <i type="logical" name="LSCAAWARE"> F  </i>
   <i type="logical" name="LSCALU"> F  </i>
   <i type="logical" name="LASYNC"> F  </i>
   <i type="logical" name="LORBITALREAL"> F  </i>
  </separator>
  <separator name="miscellaneous" >
   <i type="int" name="IDIOT">     3</i>
   <i type="logical" name="LMUSIC"> F  </i>
   <v name="POMASS">     95.94000000     32.06600000</v>
   <v name="DARWINR">      0.00000000      0.00000000</v>
   <v name="DARWINV">      1.00000000      1.00000000</v>
   <i type="logical" name="LCORR"> T  </i>
  </separator>
  <i type="logical" name="GGA_COMPAT"> T  </i>
  <i type="logical" name="LBERRY"> F  </i>
  <i type="int" name="ICORELEVEL">     0</i>
  <i type="logical" name="LDAU"> F  </i>
  <i type="int" name="I_CONSTRAINED_M">     0</i>
  <separator name="electronic exchange-correlation" >
   <i type="string" name="GGA">--</i>
   <i type="int" name="VOSKOWN">     0</i>
   <i type="logical" name="LHFCALC"> F  </i>
   <i type="string" name="PRECFOCK"></i>
   <i type="logical" name="LSYMGRAD"> F  </i>
   <i type="logical" name="LHFONE"> F  </i>
   <i type="logical" name="LRHFCALC"> F  </i>
   <i type="logical" name="LTHOMAS"> F  </i>
   <i type="logical" name="LMODELHF"> F  </i>
   <i name="ENCUT4O">     -1.00000000</i>
   <i type="int" name="EXXOEP">     0</i>
   <i type="int" name="FOURORBIT">     0</i>
   <i name="AEXX">      0.00000000</i>
   <i name="HFALPHA">      0.00000000</i>
   <i name="MCALPHA">      0.00000000</i>
   <i name="ALDAX">      1.00000000</i>
   <i name="AGGAX">      1.00000000</i>
   <i name="ALDAC">      1.00000000</i>
   <i name="AGGAC">      1.00000000</i>
   <i type="int" name="NKREDX">     1</i>
   <i type="int" name="NKREDY">     1</i>
   <i type="int" name="NKREDZ">     1</i>
   <i type="logical" name="SHIFTRED"> F  </i>
   <i type="logical" name="ODDONLY"> F  </i>
   <i type="logical" name="EVENONLY"> F  </i>
   <i type="int" name="LMAXFOCK">     0</i>
   <i type="int" name="NMAXFOCKAE">     0</i>
   <i type="logical" name="LFOCKAEDFT"> F  </i>
   <i name="HFSCREEN">      0.00000000</i>
   <i name="HFSCREENC">      0.00000000</i>
   <i type="int" name="NBANDSGWLOW">     0</i>
  </separator>
  <separator name="vdW DFT" >
   <i type="logical" name="LUSE_VDW"> F  </i>
   <i name="Zab_VDW">     -0.84910000</i>
   <i name="PARAM1">      0.12340000</i>
   <i name="PARAM2">      1.00000000</i>
   <i name="PARAM3">      0.00000000</i>
  </separator>
  <separator name="model GW" >
   <i type="int" name="MODEL_GW">     0</i>
   <i name="MODEL_EPS0">     60.63764212</i>
   <i name="MODEL_ALPHA">      1.00000000</i>
  </separator>
  <separator name="linear response parameters" >
   <i type="logical" name="LEPSILON"> F  </i>
   <i type="logical" name="LRPA"> F  </i>
   <i type="logical" name="LNABLA"> F  </i>
   <i type="logical" name="LVEL"> F  </i>
   <i type="int" name="KINTER">     0</i>
   <i name="CSHIFT">      0.10000000</i>
   <i name="OMEGAMAX">     -1.00000000</i>
   <i name="DEG_THRESHOLD">      0.00200000</i>
  </separator>
  <separator name="orbital magnetization" >
   <i type="logical" name="NUCIND"> F  </i>
   <v name="MAGPOS">      0.00000000      0.00000000      0.00000000</v>
   <i type="logical" name="LNICSALL"> T  </i>
   <i type="logical" name="ORBITALMAG"> F  </i>
   <i type="logical" name="LMAGBLOCH"> F  </i>
   <i type="logical" name="LCHIMAG"> F  </i>
   <i type="logical" name="LGAUGE"> T  </i>
   <i type="int" name="MAGATOM">     0</i>
   <v name="MAGDIPOL">      0.00000000      0.00000000      0.00000000</v>
   <v name="AVECCONST">      0.00000000      0.00000000      0.00000000</v>
  </separator>
  <separator name="response functions" >
   <i type="logical" name="LADDER"> F  </i>
   <i type="logical" name="LFXC"> F  </i>
   <i type="logical" name="LHARTREE"> T  </i>
   <i type="int" name="IBSE">     0</i>
   <v type="int" name="KPOINT">    -1     0     0     0</v>
   <i type="logical" name="LTCTE"> F  </i>
   <i type="logical" name="LTETE"> F  </i>
   <i type="logical" name="LTRIPLET"> F  </i>
   <i type="logical" name="LFXCEPS"> F  </i>
   <i type="logical" name="LFXHEG"> F  </i>
   <i type="int" name="NATURALO">     0</i>
   <i type="logical" name="L2ORDER"> F  </i>
   <i type="logical" name="LUSEW"> F  </i>
   <i name="ENCUTGW">     -2.00000000</i>
   <i name="ENCUTGWSOFT">     -2.00000000</i>
   <i name="ENCUTLF">     -1.00000000</i>
   <i type="int" name="LMAXMP2">    -1</i>
   <i name="SCISSOR">      0.00000000</i>
   <i type="int" name="NOMEGA">     0</i>
   <i type="int" name="NOMEGAR">     0</i>
   <i type="int" name="NBANDSGW">    -1</i>
   <i type="int" name="NBANDSO">    -1</i>
   <i type="int" name="NBANDSV">    -1</i>
   <i type="int" name="NELM">     1</i>
   <i type="int" name="NELMHF">     1</i>
   <i type="int" name="DIM">     3</i>
   <i type="int" name="ANTIRES">     0</i>
   <i name="OMEGAMAX">    -30.00000000</i>
   <i name="OMEGAMIN">    -30.00000000</i>
   <i name="OMEGATL">   -200.00000000</i>
   <i type="int" name="OMEGAGRID">     0</i>
   <i name="CSHIFT">     -0.10000000</i>
   <i type="logical" name="SELFENERGY"> F  </i>
   <i type="logical" name="LSPECTRAL"> F  </i>
   <i type="logical" name="LSPECTRALGW"> F  </i>
   <i type="logical" name="LSINGLES"> F  </i>
   <i type="logical" name="LFERMIGW"> F  </i>
   <i type="logical" name="ODDONLYGW"> F  </i>
   <i type="logical" name="EVENONLYGW"> F  </i>
   <i type="int" name="NKREDLFX">     1</i>
   <i type="int" name="NKREDLFY">     1</i>
   <i type="int" name="NKREDLFZ">     1</i>
   <i type="int" name="MAXMEM">  1800</i>
   <i type="int" name="TELESCOPE">     0</i>
   <i type="int" name="TAUPAR">     1</i>
   <i type="int" name="OMEGAPAR">    -1</i>
   <i name="LAMBDA">      1.00000000</i>
  </separator>
  <separator name="External order field" >
   <i name="OFIELD_KAPPA">      0.00000000</i>
   <v name="OFIELD_K">      0.00000000      0.00000000      0.00000000</v>
   <i name="OFIELD_Q6_NEAR">      0.00000000</i>
   <i name="OFIELD_Q6_FAR">      0.00000000</i>
   <i name="OFIELD_A">      0.00000000</i>
  </separator>
  <separator name="solvation model" >
   <i type="logical" name="LSOL"> F  </i>
  </separator>
 </parameters>
 <atominfo>
  <atoms>       3 </atoms>
  <types>       2 </types>
  <array name="atoms" >
   <dimension dim="1">ion</dimension>
   <field type="string">element</field>
   <field type="int">atomtype</field>
   <set>
    <rc><c>Mo</c><c>   1</c></rc>
    <rc><c>S </c><c>   2</c></rc>
    <rc><c>S </c><c>   2</c></rc>
   </set>
  </array>
  <array name="atomtypes" >
   <dimension dim="1">type</dimension>
   <field type="int">atomspertype</field>
   <field type="string">element</field>
   <field>mass</field>
   <field>valence</field>
   <field type="string">pseudopotential</field>
   <set>
    <rc><c>   1</c><c>Mo</c><c>     95.94000000</c><c>     12.00000000</c><c> PAW_PBE Mo_pv 08Apr2002                </c></rc>
    <rc><c>   2</c><c>S </c><c>     32.06600000</c><c>      6.00000000</c><c>  PAW_PBE S 17Jan2003                   </c></rc>
   </set>
  </array>
 </atominfo>
 <structure name="initialpos" >
  <crystal>
   <varray name="basis" >
    <v>       1.58218970      -2.74043224       0.00000000 </v>
    <v>       1.58218970       2.74043224       0.00000000 </v>
    <v>       0.00000000       0.00000000      34.96267827 </v>
   </varray>
   <i name="volume">    303.18821061 </i>
   <varray name="rec_basis" >
    <v>       0.31601773      -0.18245297       0.00000000 </v>
    <v>       0.31601773       0.18245297       0.00000000 </v>
    <v>       0.00000000       0.00000000       0.02860193 </v>
   </varray>
  </crystal>
  <varray name="positions" >
   <v>       0.66666700       0.33333300       0.10664700 </v>
   <v>       0.33333300       0.66666700       0.06198962 </v>
   <v>       0.33333300       0.66666700       0.15130538 </v>
  </varray>
 </structure>
 <calculation>
  <scstep>
   <time name="dav">   10.74   10.79</time>
   <time name="total">   11.01   11.07</time>
   <dipole>
    <v name="dipole">      0.00000000       0.00000000       0.42979289 </v>
    <i name="Tr[quadrupol]">    -53.84297325 </i>
    <i name="Echarged">      0.00000000 </i>
    <i name="Edipol_quadrupol">      0.00000000 </i>
    <i name="Eion">      0.00000000 </i>
   </dipole>
   <energy>
    <i name="alphaZ">    102.12871381 </i>
    <i name="ewald">  12079.28848830 </i>
    <i name="hartreedc"> -13643.40632997 </i>
    <i name="XCdc">     62.69396398 </i>
    <i name="pawpsdc">   1093.95511141 </i>
    <i name="pawaedc">  -1068.01160938 </i>
    <i name="eentropy">     -0.00370166 </i>
    <i name="bandstr">   -291.12920618 </i>
    <i name="atom">   1837.94417650 </i>
    <i name="e_fr_energy">    173.45960682 </i>
    <i name="e_wo_entrp">    173.46330847 </i>
    <i name="e_0_energy">    173.46145765 </i>
   </energy>
  </scstep>
  <scstep>
   <time name="dav">   11.84   11.84</time>
   <time name="total">   11.84   11.85</time>
   <dipole>
    <v name="dipole">      0.00000000       0.00000000       0.42979289 </v>
    <i name="Tr[quadrupol]">    -53.84297325 </i>
    <i name="Echarged">      0.00000000 </i>
    <i name="Edipol_quadrupol">      0.00000000 </i>
    <i name="Eion">      0.00000000 </i>
   </dipole>
   <energy>
    <i name="e_fr_energy">     -4.08681583 </i>
    <i name="e_wo_entrp">     -4.08681583 </i>
    <i name="e_0_energy">     -4.08681583 </i>
   </energy>
  </scstep>
  <scstep>
   <time name="dav">   11.80   11.80</time>
   <time name="total">   11.80   11.80</time>
   <dipole>
    <v name="dipole">      0.00000000       0.00000000       0.42979289 </v>
    <i name="Tr[quadrupol]">    -53.84297325 </i>
    <i name="Echarged">      0.00000000 </i>
    <i name="Edipol_quadrupol">      0.00000000 </i>
    <i name="Eion">      0.00000000 </i>
   </dipole>
   <energy>
    <i name="e_fr_energy">    -22.09585506 </i>
    <i name="e_wo_entrp">    -22.09585506 </i>
    <i name="e_0_energy">    -22.09585506 </i>
   </energy>
  </scstep>
  <scstep>
   <time name="dav">   11.97   11.97</time>
   <time name="total">   11.98   11.98</time>
   <dipole>
    <v name="dipole">      0.00000000       0.00000000       0.42979289 </v>
    <i name="Tr[quadrupol]">    -53.84297325 </i>
    <i name="Echarged">      0.00000000 </i>
    <i name="Edipol_quadrupol">      0.00000000 </i>
    <i name="Eion">      0.00000000 </i>
   </dipole>
   <energy>
    <i name="e_fr_energy">    -22.62437610 </i>
    <i name="e_wo_entrp">    -22.62437610 </i>
    <i name="e_0_energy">    -22.62437610 </i>
   </energy>
  </scstep>
  <scstep>
   <time name="dav">   12.42   12.42</time>
   <time name="total">   13.14   13.15</time>
   <dipole>
    <v name="dipole">      0.00000000       0.00000000       0.42979289 </v>
    <i name="Tr[quadrupol]">    -53.84297325 </i>
    <i name="Echarged">      0.00000000 </i>
    <i name="Edipol_quadrupol">      0.00000000 </i>
    <i name="Eion">      0.00000000 </i>
   </dipole>
   <energy>
    <i name="e_fr_energy">    -22.63642244 </i>
    <i name="e_wo_entrp">    -22.63642244 </i>
    <i name="e_0_energy">    -22.63642244 </i>
   </energy>
  </scstep>
  <scstep>
   <time name="dav">   11.57   11.57</time>
   <time name="total">   12.54   12.55</time>
   <dipole>
    <v name="dipole">      0.00000000       0.00000000       0.40171689 </v>
    <i name="Tr[quadrupol]">    -53.54986114 </i>
    <i name="Echarged">      0.00000000 </i>
    <i name="Edipol_quadrupol">      0.00000000 </i>
    <i name="Eion">      0.00000000 </i>
   </dipole>
   <energy>
    <i name="e_fr_energy">    -18.50208764 </i>
    <i name="e_wo_entrp">    -18.50208764 </i>
    <i name="e_0_energy">    -18.50208764 </i>
   </energy>
  </scstep>
  <scstep>
   <time name="dav">   11.54   11.54</time>
   <time name="total">   12.48   12.49</time>
   <dipole>
    <v name="dipole">      0.00000000       0.00000000       0.62779335 </v>
    <i name="Tr[quadrupol]">    -54.29285679 </i>
    <i name="Echarged">      0.00000000 </i>
    <i name="Edipol_quadrupol">      0.00000000 </i>
    <i name="Eion">      0.00000000 </i>
   </dipole>
   <energy>
    <i name="e_fr_energy">    -18.31914414 </i>
    <i name="e_wo_entrp">    -18.31914414 </i>
    <i name="e_0_energy">    -18.31914414 </i>
   </energy>
  </scstep>
  <scstep>
   <time name="dav">   10.82   10.82</time>
   <time name="total">   11.77   11.77</time>
   <dipole>
    <v name="dipole">      0.00000000       0.00000000       0.71942871 </v>
    <i name="Tr[quadrupol]">    -54.36679318 </i>
    <i name="Echarged">      0.00000000 </i>
    <i name="Edipol_quadrupol">      0.00000000 </i>
    <i name="Eion">      0.00000000 </i>
   </dipole>
   <energy>
    <i name="e_fr_energy">    -18.10739457 </i>
    <i name="e_wo_entrp">    -18.10739457 </i>
    <i name="e_0_energy">    -18.10739457 </i>
   </energy>
  </scstep>
  <scstep>
   <time name="dav">   10.82   10.82</time>
   <time name="total">   11.77   11.77</time>
   <dipole>
    <v name="dipole">      0.00000000       0.00000000       0.73472069 </v>
    <i name="Tr[quadrupol]">    -54.32415862 </i>
    <i name="Echarged">      0.00000000 </i>
    <i name="Edipol_quadrupol">      0.00000000 </i>
    <i name="Eion">      0.00000000 </i>
   </dipole>
   <energy>
    <i name="e_fr_energy">    -18.80977694 </i>
    <i name="e_wo_entrp">    -18.80977694 </i>
    <i name="e_0_energy">    -18.80977694 </i>
   </energy>
  </scstep>
  <scstep>
   <time name="dav">   11.46   11.46</time>
   <time name="total">   12.40   12.41</time>
   <dipole>
    <v name="dipole">      0.00000000       0.00000000       0.54324809 </v>
    <i name="Tr[quadrupol]">    -53.76629747 </i>
    <i name="Echarged">      0.00000000 </i>
    <i name="Edipol_quadrupol">      0.00000000 </i>
    <i name="Eion">      0.00000000 </i>
   </dipole>
   <energy>
    <i name="e_fr_energy">    -19.86920066 </i>
    <i name="e_wo_entrp">    -19.86920066 </i>
    <i name="e_0_energy">    -19.86920066 </i>
   </energy>
  </scstep>
  <scstep>
   <time name="dav">   11.79   11.79</time>
   <time name="total">   12.73   12.74</time>
   <dipole>
    <v name="dipole">      0.00000000       0.00000000       0.28635455 </v>
    <i name="Tr[quadrupol]">    -53.16372507 </i>
    <i name="Echarged">      0.00000000 </i>
    <i name="Edipol_quadrupol">      0.00000000 </i>
    <i name="Eion">      0.00000000 </i>
   </dipole>
   <energy>
    <i name="e_fr_energy">    -20.70758504 </i>
    <i name="e_wo_entrp">    -20.70758504 </i>
    <i name="e_0_energy">    -20.70758504 </i>
   </energy>
  </scstep>
  <scstep>
   <time name="dav">   12.32   12.32</time>
   <time name="total">   13.27   13.27</time>
   <dipole>
    <v name="dipole">      0.00000000       0.00000000      -0.06004855 </v>
    <i name="Tr[quadrupol]">    -52.49912310 </i>
    <i name="Echarged">      0.00000000 </i>
    <i name="Edipol_quadrupol">      0.00000000 </i>
    <i name="Eion">      0.00000000 </i>
   </dipole>
   <energy>
    <i name="e_fr_energy">    -21.25933909 </i>
    <i name="e_wo_entrp">    -21.25933909 </i>
    <i name="e_0_energy">    -21.25933909 </i>
   </energy>
  </scstep>
  <scstep>
   <time name="dav">   12.14   12.14</time>
   <time name="total">   13.09   13.09</time>
   <dipole>
    <v name="dipole">      0.00000000       0.00000000      -0.15795374 </v>
    <i name="Tr[quadrupol]">    -52.48925467 </i>
    <i name="Echarged">      0.00000000 </i>
    <i name="Edipol_quadrupol">      0.00000000 </i>
    <i name="Eion">      0.00000000 </i>
   </dipole>
   <energy>
    <i name="e_fr_energy">    -21.44114360 </i>
    <i name="e_wo_entrp">    -21.44114360 </i>
    <i name="e_0_energy">    -21.44114360 </i>
   </energy>
  </scstep>
  <scstep>
   <time name="dav">   10.96   10.96</time>
   <time name="total">   11.90   11.91</time>
   <dipole>
    <v name="dipole">      0.00000000       0.00000000      -0.10870393 </v>
    <i name="Tr[quadrupol]">    -52.96892919 </i>
    <i name="Echarged">      0.00000000 </i>
    <i name="Edipol_quadrupol">      0.00000000 </i>
    <i name="Eion">      0.00000000 </i>
   </dipole>
   <energy>
    <i name="e_fr_energy">    -21.47570253 </i>
    <i name="e_wo_entrp">    -21.47570253 </i>
    <i name="e_0_energy">    -21.47570253 </i>
   </energy>
  </scstep>
  <scstep>
   <time name="dav">   12.02   12.02</time>
   <time name="total">   12.96   12.96</time>
   <dipole>
    <v name="dipole">      0.00000000       0.00000000       0.02628070 </v>
    <i name="Tr[quadrupol]">    -53.45500912 </i>
    <i name="Echarged">      0.00000000 </i>
    <i name="Edipol_quadrupol">      0.00000000 </i>
    <i name="Eion">      0.00000000 </i>
   </dipole>
   <energy>
    <i name="e_fr_energy">    -21.46504811 </i>
    <i name="e_wo_entrp">    -21.46504811 </i>
    <i name="e_0_energy">    -21.46504811 </i>
   </energy>
  </scstep>
  <scstep>
   <time name="dav">   11.82   11.82</time>
   <time name="total">   12.77   12.77</time>
   <dipole>
    <v name="dipole">      0.00000000       0.00000000       0.16610056 </v>
    <i name="Tr[quadrupol]">    -53.70672741 </i>
    <i name="Echarged">      0.00000000 </i>
    <i name="Edipol_quadrupol">      0.00000000 </i>
    <i name="Eion">      0.00000000 </i>
   </dipole>
   <energy>
    <i name="e_fr_energy">    -21.54889935 </i>
    <i name="e_wo_entrp">    -21.54889935 </i>
    <i name="e_0_energy">    -21.54889935 </i>
   </energy>
  </scstep>
  <scstep>
   <time name="dav">   12.12   12.12</time>
   <time name="total">   13.08   13.08</time>
   <dipole>
    <v name="dipole">      0.00000000       0.00000000       0.31871817 </v>
    <i name="Tr[quadrupol]">    -53.75812514 </i>
    <i name="Echarged">      0.00000000 </i>
    <i name="Edipol_quadrupol">      0.00000000 </i>
    <i name="Eion">      0.00000000 </i>
   </dipole>
   <energy>
    <i name="e_fr_energy">    -21.65176407 </i>
    <i name="e_wo_entrp">    -21.65176407 </i>
    <i name="e_0_energy">    -21.65176407 </i>
   </energy>
  </scstep>
  <scstep>
   <time name="dav">   11.79   11.79</time>
   <time name="total">   12.75   12.75</time>
   <dipole>
    <v name="dipole">      0.00000000       0.00000000       0.40567347 </v>
    <i name="Tr[quadrupol]">    -53.62115445 </i>
    <i name="Echarged">      0.00000000 </i>
    <i name="Edipol_quadrupol">      0.00000000 </i>
    <i name="Eion">      0.00000000 </i>
   </dipole>
   <energy>
    <i name="e_fr_energy">    -21.72322451 </i>
    <i name="e_wo_entrp">    -21.72322451 </i>
    <i name="e_0_energy">    -21.72322451 </i>
   </energy>
  </scstep>
  <scstep>
   <time name="dav">   10.87   10.87</time>
   <time name="total">   11.82   11.82</time>
   <dipole>
    <v name="dipole">      0.00000000       0.00000000       0.36198860 </v>
    <i name="Tr[quadrupol]">    -53.40960678 </i>
    <i name="Echarged">      0.00000000 </i>
    <i name="Edipol_quadrupol">      0.00000000 </i>
    <i name="Eion">      0.00000000 </i>
   </dipole>
   <energy>
    <i name="e_fr_energy">    -21.71757585 </i>
    <i name="e_wo_entrp">    -21.71757585 </i>
    <i name="e_0_energy">    -21.71757585 </i>
   </energy>
  </scstep>
  <scstep>
   <time name="dav">   11.05   11.05</time>
   <time name="total">   12.00   12.00</time>
   <dipole>
    <v name="dipole">      0.00000000       0.00000000       0.31823711 </v>
    <i name="Tr[quadrupol]">    -53.36002093 </i>
    <i name="Echarged">      0.00000000 </i>
    <i name="Edipol_quadrupol">      0.00000000 </i>
    <i name="Eion">      0.00000000 </i>
   </dipole>
   <energy>
    <i name="e_fr_energy">    -21.69784927 </i>
    <i name="e_wo_entrp">    -21.69784927 </i>
    <i name="e_0_energy">    -21.69784927 </i>
   </energy>
  </scstep>
  <scstep>
   <time name="dav">   10.76   10.76</time>
   <time name="total">   11.71   11.71</time>
   <dipole>
    <v name="dipole">      0.00000000       0.00000000       0.26083543 </v>
    <i name="Tr[quadrupol]">    -53.39601225 </i>
    <i name="Echarged">      0.00000000 </i>
    <i name="Edipol_quadrupol">      0.00000000 </i>
    <i name="Eion">      0.00000000 </i>
   </dipole>
   <energy>
    <i name="e_fr_energy">    -21.69018661 </i>
    <i name="e_wo_entrp">    -21.69018661 </i>
    <i name="e_0_energy">    -21.69018661 </i>
   </energy>
  </scstep>
  <scstep>
   <time name="dav">   11.49   11.49</time>
   <time name="total">   12.43   12.44</time>
   <dipole>
    <v name="dipole">      0.00000000       0.00000000       0.23411502 </v>
    <i name="Tr[quadrupol]">    -53.43798212 </i>
    <i name="Echarged">      0.00000000 </i>
    <i name="Edipol_quadrupol">      0.00000000 </i>
    <i name="Eion">      0.00000000 </i>
   </dipole>
   <energy>
    <i name="e_fr_energy">    -21.68978240 </i>
    <i name="e_wo_entrp">    -21.68978240 </i>
    <i name="e_0_energy">    -21.68978240 </i>
   </energy>
  </scstep>
  <scstep>
   <time name="dav">   10.67   10.67</time>
   <time name="total">   11.62   11.62</time>
   <dipole>
    <v name="dipole">      0.00000000       0.00000000       0.23992857 </v>
    <i name="Tr[quadrupol]">    -53.46861823 </i>
    <i name="Echarged">      0.00000000 </i>
    <i name="Edipol_quadrupol">      0.00000000 </i>
    <i name="Eion">      0.00000000 </i>
   </dipole>
   <energy>
    <i name="e_fr_energy">    -21.69415545 </i>
    <i name="e_wo_entrp">    -21.69415545 </i>
    <i name="e_0_energy">    -21.69415545 </i>
   </energy>
  </scstep>
  <scstep>
   <time name="dav">   10.55   10.55</time>
   <time name="total">   11.50   11.51</time>
   <dipole>
    <v name="dipole">      0.00000000       0.00000000       0.24684552 </v>
    <i name="Tr[quadrupol]">    -53.48498369 </i>
    <i name="Echarged">      0.00000000 </i>
    <i name="Edipol_quadrupol">      0.00000000 </i>
    <i name="Eion">      0.00000000 </i>
   </dipole>
   <energy>
    <i name="e_fr_energy">    -21.69671794 </i>
    <i name="e_wo_entrp">    -21.69671794 </i>
    <i name="e_0_energy">    -21.69671794 </i>
   </energy>
  </scstep>
  <scstep>
   <time name="dav">   10.78   10.78</time>
   <time name="total">   11.73   11.73</time>
   <dipole>
    <v name="dipole">      0.00000000       0.00000000       0.24951432 </v>
    <i name="Tr[quadrupol]">    -53.48477739 </i>
    <i name="Echarged">      0.00000000 </i>
    <i name="Edipol_quadrupol">      0.00000000 </i>
    <i name="Eion">      0.00000000 </i>
   </dipole>
   <energy>
    <i name="e_fr_energy">    -21.69763753 </i>
    <i name="e_wo_entrp">    -21.69763753 </i>
    <i name="e_0_energy">    -21.69763753 </i>
   </energy>
  </scstep>
  <scstep>
   <time name="dav">   11.27   11.27</time>
   <time name="total">   12.22   12.22</time>
   <dipole>
    <v name="dipole">      0.00000000       0.00000000       0.25058213 </v>
    <i name="Tr[quadrupol]">    -53.48001412 </i>
    <i name="Echarged">      0.00000000 </i>
    <i name="Edipol_quadrupol">      0.00000000 </i>
    <i name="Eion">      0.00000000 </i>
   </dipole>
   <energy>
    <i name="e_fr_energy">    -21.69795913 </i>
    <i name="e_wo_entrp">    -21.69795913 </i>
    <i name="e_0_energy">    -21.69795913 </i>
   </energy>
  </scstep>
  <scstep>
   <time name="dav">   11.05   11.05</time>
   <time name="total">   12.01   12.01</time>
   <dipole>
    <v name="dipole">      0.00000000       0.00000000       0.25142448 </v>
    <i name="Tr[quadrupol]">    -53.47686405 </i>
    <i name="Echarged">      0.00000000 </i>
    <i name="Edipol_quadrupol">      0.00000000 </i>
    <i name="Eion">      0.00000000 </i>
   </dipole>
   <energy>
    <i name="e_fr_energy">    -21.69816549 </i>
    <i name="e_wo_entrp">    -21.69816549 </i>
    <i name="e_0_energy">    -21.69816549 </i>
   </energy>
  </scstep>
  <scstep>
   <time name="dav">   10.99   10.99</time>
   <time name="total">   11.95   11.95</time>
   <dipole>
    <v name="dipole">      0.00000000       0.00000000       0.25133584 </v>
    <i name="Tr[quadrupol]">    -53.47402393 </i>
    <i name="Echarged">      0.00000000 </i>
    <i name="Edipol_quadrupol">      0.00000000 </i>
    <i name="Eion">      0.00000000 </i>
   </dipole>
   <energy>
    <i name="e_fr_energy">    -21.69816905 </i>
    <i name="e_wo_entrp">    -21.69816905 </i>
    <i name="e_0_energy">    -21.69816905 </i>
   </energy>
  </scstep>
  <scstep>
   <time name="dav">   10.81   10.81</time>
   <time name="total">   11.76   11.76</time>
   <dipole>
    <v name="dipole">      0.00000000       0.00000000       0.25107941 </v>
    <i name="Tr[quadrupol]">    -53.47219176 </i>
    <i name="Echarged">      0.00000000 </i>
    <i name="Edipol_quadrupol">      0.00000000 </i>
    <i name="Eion">      0.00000000 </i>
   </dipole>
   <energy>
    <i name="e_fr_energy">    -21.69812639 </i>
    <i name="e_wo_entrp">    -21.69812639 </i>
    <i name="e_0_energy">    -21.69812639 </i>
   </energy>
  </scstep>
  <scstep>
   <time name="dav">    9.70    9.70</time>
   <time name="total">   10.65   10.65</time>
   <dipole>
    <v name="dipole">      0.00000000       0.00000000       0.25073256 </v>
    <i name="Tr[quadrupol]">    -53.47094934 </i>
    <i name="Echarged">      0.00000000 </i>
    <i name="Edipol_quadrupol">      0.00000000 </i>
    <i name="Eion">      0.00000000 </i>
   </dipole>
   <energy>
    <i name="e_fr_energy">    -21.69806527 </i>
    <i name="e_wo_entrp">    -21.69806527 </i>
    <i name="e_0_energy">    -21.69806527 </i>
   </energy>
  </scstep>
  <scstep>
   <time name="dav">    9.89    9.89</time>
   <time name="total">   10.84   10.84</time>
   <dipole>
    <v name="dipole">      0.00000000       0.00000000       0.25056852 </v>
    <i name="Tr[quadrupol]">    -53.47077616 </i>
    <i name="Echarged">      0.00000000 </i>
    <i name="Edipol_quadrupol">      0.00000000 </i>
    <i name="Eion">      0.00000000 </i>
   </dipole>
   <energy>
    <i name="e_fr_energy">    -21.69803455 </i>
    <i name="e_wo_entrp">    -21.69803455 </i>
    <i name="e_0_energy">    -21.69803455 </i>
   </energy>
  </scstep>
  <scstep>
   <time name="dav">    9.82    9.82</time>
   <time name="total">   10.77   10.77</time>
   <dipole>
    <v name="dipole">      0.00000000       0.00000000       0.25035035 </v>
    <i name="Tr[quadrupol]">    -53.47073887 </i>
    <i name="Echarged">      0.00000000 </i>
    <i name="Edipol_quadrupol">      0.00000000 </i>
    <i name="Eion">      0.00000000 </i>
   </dipole>
   <energy>
    <i name="e_fr_energy">    -21.69799318 </i>
    <i name="e_wo_entrp">    -21.69799318 </i>
    <i name="e_0_energy">    -21.69799318 </i>
   </energy>
  </scstep>
  <scstep>
   <time name="dav">    8.94    8.94</time>
   <time name="total">    9.90    9.90</time>
   <dipole>
    <v name="dipole">      0.00000000       0.00000000       0.25028781 </v>
    <i name="Tr[quadrupol]">    -53.47066318 </i>
    <i name="Echarged">      0.00000000 </i>
    <i name="Edipol_quadrupol">      0.00000000 </i>
    <i name="Eion">      0.00000000 </i>
   </dipole>
   <energy>
    <i name="e_fr_energy">    -21.69798139 </i>
    <i name="e_wo_entrp">    -21.69798139 </i>
    <i name="e_0_energy">    -21.69798139 </i>
   </energy>
  </scstep>
  <scstep>
   <time name="dav">    9.08    9.08</time>
   <time name="total">   10.04   10.04</time>
   <dipole>
    <v name="dipole">      0.00000000       0.00000000       0.25027530 </v>
    <i name="Tr[quadrupol]">    -53.47066593 </i>
    <i name="Echarged">      0.00000000 </i>
    <i name="Edipol_quadrupol">      0.00000000 </i>
    <i name="Eion">      0.00000000 </i>
   </dipole>
   <energy>
    <i name="e_fr_energy">    -21.69797913 </i>
    <i name="e_wo_entrp">    -21.69797913 </i>
    <i name="e_0_energy">    -21.69797913 </i>
   </energy>
  </scstep>
  <scstep>
   <time name="dav">    8.66    8.66</time>
   <time name="total">    9.62    9.62</time>
   <dipole>
    <v name="dipole">      0.00000000       0.00000000       0.25025827 </v>
    <i name="Tr[quadrupol]">    -53.47061728 </i>
    <i name="Echarged">      0.00000000 </i>
    <i name="Edipol_quadrupol">      0.00000000 </i>
    <i name="Eion">      0.00000000 </i>
   </dipole>
   <energy>
    <i name="e_fr_energy">    -21.69797585 </i>
    <i name="e_wo_entrp">    -21.69797585 </i>
    <i name="e_0_energy">    -21.69797585 </i>
   </energy>
  </scstep>
  <scstep>
   <time name="dav">    8.76    8.76</time>
   <time name="total">    9.72    9.73</time>
   <dipole>
    <v name="dipole">      0.00000000       0.00000000       0.25025893 </v>
    <i name="Tr[quadrupol]">    -53.47059554 </i>
    <i name="Echarged">      0.00000000 </i>
    <i name="Edipol_quadrupol">      0.00000000 </i>
    <i name="Eion">      0.00000000 </i>
   </dipole>
   <energy>
    <i name="e_fr_energy">    -21.69797601 </i>
    <i name="e_wo_entrp">    -21.69797601 </i>
    <i name="e_0_energy">    -21.69797601 </i>
   </energy>
  </scstep>
  <scstep>
   <time name="dav">    9.13    9.13</time>
   <time name="total">   10.11   10.11</time>
   <dipole>
    <v name="dipole">      0.00000000       0.00000000       0.25026149 </v>
    <i name="Tr[quadrupol]">    -53.47059765 </i>
    <i name="Echarged">      0.00000000 </i>
    <i name="Edipol_quadrupol">      0.00000000 </i>
    <i name="Eion">      0.00000000 </i>
   </dipole>
   <energy>
    <i name="e_fr_energy">    -21.69797652 </i>
    <i name="e_wo_entrp">    -21.69797652 </i>
    <i name="e_0_energy">    -21.69797652 </i>
   </energy>
  </scstep>
  <scstep>
   <time name="dav">    8.91    8.91</time>
   <time name="total">    9.15    9.15</time>
   <dipole>
    <v name="dipole">      0.00000000       0.00000000       0.25026131 </v>
    <i name="Tr[quadrupol]">    -53.47059849 </i>
    <i name="Echarged">      0.00000000 </i>
    <i name="Edipol_quadrupol">      0.00000000 </i>
    <i name="Eion">      0.00000000 </i>
   </dipole>
   <energy>
    <i name="alphaZ">     66.79860367 </i>
    <i name="ewald">  12079.28848830 </i>
    <i name="hartreedc"> -13648.57998732 </i>
    <i name="XCdc">     62.12857162 </i>
    <i name="pawpsdc">   1174.71638814 </i>
    <i name="pawaedc">  -1153.72589283 </i>
    <i name="eentropy">     -0.00000000 </i>
    <i name="bandstr">   -440.26832455 </i>
    <i name="atom">   1837.94417650 </i>
    <i name="e_fr_energy">    -21.69797648 </i>
    <i name="e_wo_entrp">    -21.69797648 </i>
    <i name="e_0_energy">    -21.69797648 </i>
   </energy>
  </scstep>
  <structure>
   <crystal>
    <varray name="basis" >
     <v>       1.58218970      -2.74043224       0.00000000 </v>
     <v>       1.58218970       2.74043224       0.00000000 </v>
     <v>       0.00000000       0.00000000      34.96267827 </v>
    </varray>
    <i name="volume">    303.18821061 </i>
    <varray name="rec_basis" >
     <v>       0.31601773      -0.18245297       0.00000000 </v>
     <v>       0.31601773       0.18245297       0.00000000 </v>
     <v>       0.00000000       0.00000000       0.02860193 </v>
    </varray>
   </crystal>
   <varray name="positions" >
    <v>       0.66666700       0.33333300       0.10664700 </v>
    <v>       0.33333300       0.66666700       0.06198962 </v>
    <v>       0.33333300       0.66666700       0.15130538 </v>
   </varray>
  </structure>
  <varray name="forces" >
   <v>       0.00000000       0.00000000       0.00000000 </v>
   <v>       0.00000000       0.00000000      -0.20393752 </v>
   <v>      -0.00000000      -0.00000000       0.20393752 </v>
  </varray>
  <varray name="stress" >
   <v>       5.35531578       0.00000000       0.00000000 </v>
   <v>       0.00000000       5.35531305       0.00000000 </v>
   <v>       0.00000000       0.00000000       5.50423199 </v>
  </varray>
  <energy>
   <i name="e_fr_energy">    -21.69797648 </i>
   <i name="e_wo_entrp">    -21.69797648 </i>
   <i name="e_0_energy">     -0.00000000 </i>
  </energy>
  <time name="totalsc">  453.21  453.39</time>
  <eigenvalues>
   <array>
    <dimension dim="1">band</dimension>
    <dimension dim="2">kpoint</dimension>
    <dimension dim="3">spin</dimension>
    <field>eigene</field>
    <field>occ</field>
    <set>
     <set comment="spin 1">
      <set comment="kpoint 1">
       <r>  -40.8497    1.0000 </r>
       <r>  -40.6283    1.0000 </r>
       <r>  -40.6283    1.0000 </r>
       <r>  -20.0133    1.0000 </r>
       <r>  -18.6220    1.0000 </r>
       <r>  -11.5010    1.0000 </r>
       <r>   -8.4395    1.0000 </r>
       <r>   -8.4395    1.0000 </r>
       <r>   -7.6111    1.0000 </r>
       <r>   -7.2952    1.0000 </r>
       <r>   -7.2951    1.0000 </r>
       <r>   -5.8367    1.0000 </r>
       <r>   -3.0461    0.0000 </r>
       <r>   -3.0460    0.0000 </r>
       <r>   -2.6928    0.0000 </r>
       <r>   -2.6928    0.0000 </r>
       <r>    0.2280    0.0000 </r>
       <r>    0.7225    0.0000 </r>
       <r>    1.7478    0.0000 </r>
       <r>    2.0649    0.0000 </r>
       <r>    2.4553    0.0000 </r>
       <r>    3.0385    0.0000 </r>
       <r>    3.3651    0.0000 </r>
       <r>    3.5738    0.0000 </r>
      </set>
      <set comment="kpoint 2">
       <r>  -40.8483    1.0000 </r>
       <r>  -40.6352    1.0000 </r>
       <r>  -40.6299    1.0000 </r>
       <r>  -19.9869    1.0000 </r>
       <r>  -18.6107    1.0000 </r>
       <r>  -11.4704    1.0000 </r>
       <r>   -8.5007    1.0000 </r>
       <r>   -8.4120    1.0000 </r>
       <r>   -7.7917    1.0000 </r>
       <r>   -7.3386    1.0000 </r>
       <r>   -7.1538    1.0000 </r>
       <r>   -5.8468    1.0000 </r>
       <r>   -3.0919    0.0000 </r>
       <r>   -3.0134    0.0000 </r>
       <r>   -2.7682    0.0000 </r>
       <r>   -2.7087    0.0000 </r>
       <r>    0.2936    0.0000 </r>
       <r>    0.8215    0.0000 </r>
       <r>    1.7836    0.0000 </r>
       <r>    2.0989    0.0000 </r>
       <r>    2.4895    0.0000 </r>
       <r>    3.0726    0.0000 </r>
       <r>    3.4928    0.0000 </r>
       <r>    3.6087    0.0000 </r>
      </set>
      <set comment="kpoint 3">
       <r>  -40.8444    1.0000 </r>
       <r>  -40.6554    1.0000 </r>
       <r>  -40.6344    1.0000 </r>
       <r>  -19.9090    1.0000 </r>
       <r>  -18.5771    1.0000 </r>
       <r>  -11.3819    1.0000 </r>
       <r>   -8.6723    1.0000 </r>
       <r>   -8.3316    1.0000 </r>
       <r>   -8.0902    1.0000 </r>
       <r>   -7.4595    1.0000 </r>
       <r>   -6.9815    1.0000 </r>
       <r>   -5.8836    1.0000 </r>
       <r>   -3.2026    0.0000 </r>
       <r>   -2.9694    0.0000 </r>
       <r>   -2.9508    0.0000 </r>
       <r>   -2.7070    0.0000 </r>
       <r>    0.4458    0.0000 </r>
       <r>    1.1219    0.0000 </r>
       <r>    1.8912    0.0000 </r>
       <r>    2.2002    0.0000 </r>
       <r>    2.5919    0.0000 </r>
       <r>    3.1748    0.0000 </r>
       <r>    3.7059    0.0000 </r>
       <r>    3.8439    0.0000 </r>
      </set>
      <set comment="kpoint 4">
       <r>  -40.8381    1.0000 </r>
       <r>  -40.6873    1.0000 </r>
       <r>  -40.6417    1.0000 </r>
       <r>  -19.7826    1.0000 </r>
       <r>  -18.5226    1.0000 </r>
       <r>  -11.2458    1.0000 </r>
       <r>   -8.9228    1.0000 </r>
       <r>   -8.4110    1.0000 </r>
       <r>   -8.2055    1.0000 </r>
       <r>   -7.6333    1.0000 </r>
       <r>   -6.8925    1.0000 </r>
       <r>   -5.9639    1.0000 </r>
       <r>   -3.3413    0.0000 </r>
       <r>   -3.1229    0.0000 </r>
       <r>   -3.0325    0.0000 </r>
       <r>   -2.5795    0.0000 </r>
       <r>    0.6390    0.0000 </r>
       <r>    1.5605    0.0000 </r>
       <r>    2.0738    0.0000 </r>
       <r>    2.3788    0.0000 </r>
       <r>    2.7622    0.0000 </r>
       <r>    3.3439    0.0000 </r>
       <r>    3.8728    0.0000 </r>
       <r>    4.2700    0.0000 </r>
      </set>
      <set comment="kpoint 5">
       <r>  -40.8300    1.0000 </r>
       <r>  -40.7286    1.0000 </r>
       <r>  -40.6511    1.0000 </r>
       <r>  -19.6131    1.0000 </r>
       <r>  -18.4489    1.0000 </r>
       <r>  -11.0836    1.0000 </r>
       <r>   -9.2099    1.0000 </r>
       <r>   -8.7390    1.0000 </r>
       <r>   -8.0647    1.0000 </r>
       <r>   -7.8116    1.0000 </r>
       <r>   -6.9089    1.0000 </r>
       <r>   -6.1066    1.0000 </r>
       <r>   -3.4981    0.0000 </r>
       <r>   -3.1607    0.0000 </r>
       <r>   -3.1522    0.0000 </r>
       <r>   -2.3784    0.0000 </r>
       <r>    0.8692    0.0000 </r>
       <r>    1.9661    0.0000 </r>
       <r>    2.3266    0.0000 </r>
       <r>    2.6879    0.0000 </r>
       <r>    3.0023    0.0000 </r>
       <r>    3.5779    0.0000 </r>
       <r>    4.0753    0.0000 </r>
       <r>    4.2099    0.0000 </r>
      </set>
      <set comment="kpoint 6">
       <r>  -40.8204    1.0000 </r>
       <r>  -40.7764    1.0000 </r>
       <r>  -40.6621    1.0000 </r>
       <r>  -19.4082    1.0000 </r>
       <r>  -18.3592    1.0000 </r>
       <r>  -10.9363    1.0000 </r>
       <r>   -9.4840    1.0000 </r>
       <r>   -9.0664    1.0000 </r>
       <r>   -8.1240    1.0000 </r>
       <r>   -7.7687    1.0000 </r>
       <r>   -7.0145    1.0000 </r>
       <r>   -6.3101    1.0000 </r>
       <r>   -3.6024    0.0000 </r>
       <r>   -3.2989    0.0000 </r>
       <r>   -3.0405    0.0000 </r>
       <r>   -2.1653    0.0000 </r>
       <r>    1.1343    0.0000 </r>
       <r>    2.2222    0.0000 </r>
       <r>    2.6122    0.0000 </r>
       <r>    3.0596    0.0000 </r>
       <r>    3.3264    0.0000 </r>
       <r>    3.8572    0.0000 </r>
       <r>    3.9531    0.0000 </r>
       <r>    4.1475    0.0000 </r>
      </set>
      <set comment="kpoint 7">
       <r>  -40.8273    1.0000 </r>
       <r>  -40.8101    1.0000 </r>
       <r>  -40.6739    1.0000 </r>
       <r>  -19.1782    1.0000 </r>
       <r>  -18.2573    1.0000 </r>
       <r>  -10.8721    1.0000 </r>
       <r>   -9.6917    1.0000 </r>
       <r>   -9.3789    1.0000 </r>
       <r>   -8.3226    1.0000 </r>
       <r>   -7.5629    1.0000 </r>
       <r>   -7.1681    1.0000 </r>
       <r>   -6.5355    1.0000 </r>
       <r>   -3.6191    0.0000 </r>
       <r>   -3.4211    0.0000 </r>
       <r>   -2.8368    0.0000 </r>
       <r>   -1.9681    0.0000 </r>
       <r>    1.4206    0.0000 </r>
       <r>    2.3638    0.0000 </r>
       <r>    2.8930    0.0000 </r>
       <r>    3.1299    0.0000 </r>
       <r>    3.5712    0.0000 </r>
       <r>    3.8015    0.0000 </r>
       <r>    4.0564    0.0000 </r>
       <r>    4.2940    0.0000 </r>
      </set>
      <set comment="kpoint 8">
       <r>  -40.8777    1.0000 </r>
       <r>  -40.7999    1.0000 </r>
       <r>  -40.6856    1.0000 </r>
       <r>  -18.9362    1.0000 </r>
       <r>  -18.1479    1.0000 </r>
       <r>  -10.9469    1.0000 </r>
       <r>   -9.8480    1.0000 </r>
       <r>   -9.6187    1.0000 </r>
       <r>   -8.5167    1.0000 </r>
       <r>   -7.3431    1.0000 </r>
       <r>   -7.3292    1.0000 </r>
       <r>   -6.7158    1.0000 </r>
       <r>   -3.5600    0.0000 </r>
       <r>   -3.5112    0.0000 </r>
       <r>   -2.5892    0.0000 </r>
       <r>   -1.8007    0.0000 </r>
       <r>    1.6955    0.0000 </r>
       <r>    2.4089    0.0000 </r>
       <r>    2.6856    0.0000 </r>
       <r>    3.1750    0.0000 </r>
       <r>    3.5527    0.0000 </r>
       <r>    4.1102    0.0000 </r>
       <r>    4.3132    0.0000 </r>
       <r>    4.7253    0.0000 </r>
      </set>
      <set comment="kpoint 9">
       <r>  -40.9243    1.0000 </r>
       <r>  -40.7903    1.0000 </r>
       <r>  -40.6965    1.0000 </r>
       <r>  -18.6990    1.0000 </r>
       <r>  -18.0368    1.0000 </r>
       <r>  -11.1260    1.0000 </r>
       <r>  -10.0747    1.0000 </r>
       <r>   -9.7091    1.0000 </r>
       <r>   -8.6867    1.0000 </r>
       <r>   -7.4724    1.0000 </r>
       <r>   -7.1387    1.0000 </r>
       <r>   -6.7890    1.0000 </r>
       <r>   -3.5609    0.0000 </r>
       <r>   -3.4490    0.0000 </r>
       <r>   -2.3419    0.0000 </r>
       <r>   -1.6686    0.0000 </r>
       <r>    1.8684    0.0000 </r>
       <r>    2.1592    0.0000 </r>
       <r>    2.4195    0.0000 </r>
       <r>    3.1737    0.0000 </r>
       <r>    3.9263    0.0000 </r>
       <r>    4.3903    0.0000 </r>
       <r>    4.6740    0.0000 </r>
       <r>    5.1747    0.0000 </r>
      </set>
      <set comment="kpoint 10">
       <r>  -40.9640    1.0000 </r>
       <r>  -40.7820    1.0000 </r>
       <r>  -40.7058    1.0000 </r>
       <r>  -18.4864    1.0000 </r>
       <r>  -17.9309    1.0000 </r>
       <r>  -11.3330    1.0000 </r>
       <r>  -10.3094    1.0000 </r>
       <r>   -9.7673    1.0000 </r>
       <r>   -8.8247    1.0000 </r>
       <r>   -7.5865    1.0000 </r>
       <r>   -6.9681    1.0000 </r>
       <r>   -6.7400    1.0000 </r>
       <r>   -3.5715    0.0000 </r>
       <r>   -3.3098    0.0000 </r>
       <r>   -2.1303    0.0000 </r>
       <r>   -1.5717    0.0000 </r>
       <r>    1.4737    0.0000 </r>
       <r>    2.0787    0.0000 </r>
       <r>    2.4045    0.0000 </r>
       <r>    3.3197    0.0000 </r>
       <r>    4.2808    0.0000 </r>
       <r>    4.6008    0.0000 </r>
       <r>    5.0891    0.0000 </r>
       <r>    5.5450    0.0000 </r>
      </set>
      <set comment="kpoint 11">
       <r>  -40.9943    1.0000 </r>
       <r>  -40.7757    1.0000 </r>
       <r>  -40.7130    1.0000 </r>
       <r>  -18.3191    1.0000 </r>
       <r>  -17.8391    1.0000 </r>
       <r>  -11.5148    1.0000 </r>
       <r>  -10.4968    1.0000 </r>
       <r>   -9.8382    1.0000 </r>
       <r>   -8.9261    1.0000 </r>
       <r>   -7.6674    1.0000 </r>
       <r>   -6.8428    1.0000 </r>
       <r>   -6.6160    1.0000 </r>
       <r>   -3.5553    0.0000 </r>
       <r>   -3.1665    0.0000 </r>
       <r>   -1.9767    0.0000 </r>
       <r>   -1.5068    0.0000 </r>
       <r>    0.9427    0.0000 </r>
       <r>    2.0950    0.0000 </r>
       <r>    2.4973    0.0000 </r>
       <r>    3.4681    0.0000 </r>
       <r>    4.3592    0.0000 </r>
       <r>    4.9074    0.0000 </r>
       <r>    5.4460    0.0000 </r>
       <r>    5.9912    0.0000 </r>
      </set>
      <set comment="kpoint 12">
       <r>  -41.0133    1.0000 </r>
       <r>  -40.7717    1.0000 </r>
       <r>  -40.7175    1.0000 </r>
       <r>  -18.2136    1.0000 </r>
       <r>  -17.7742    1.0000 </r>
       <r>  -11.6378    1.0000 </r>
       <r>  -10.6165    1.0000 </r>
       <r>   -9.8982    1.0000 </r>
       <r>   -8.9880    1.0000 </r>
       <r>   -7.7151    1.0000 </r>
       <r>   -6.7674    1.0000 </r>
       <r>   -6.4961    1.0000 </r>
       <r>   -3.5324    0.0000 </r>
       <r>   -3.0511    0.0000 </r>
       <r>   -1.8876    0.0000 </r>
       <r>   -1.4698    0.0000 </r>
       <r>    0.5559    0.0000 </r>
       <r>    2.1206    0.0000 </r>
       <r>    2.6060    0.0000 </r>
       <r>    3.5052    0.0000 </r>
       <r>    4.3195    0.0000 </r>
       <r>    5.1663    0.0000 </r>
       <r>    5.7630    0.0000 </r>
       <r>    5.9328    0.0000 </r>
      </set>
      <set comment="kpoint 13">
       <r>  -41.0198    1.0000 </r>
       <r>  -40.7703    1.0000 </r>
       <r>  -40.7190    1.0000 </r>
       <r>  -18.1778    1.0000 </r>
       <r>  -17.7504    1.0000 </r>
       <r>  -11.6813    1.0000 </r>
       <r>  -10.6576    1.0000 </r>
       <r>   -9.9214    1.0000 </r>
       <r>   -9.0088    1.0000 </r>
       <r>   -7.7308    1.0000 </r>
       <r>   -6.7425    1.0000 </r>
       <r>   -6.4474    1.0000 </r>
       <r>   -3.5221    0.0000 </r>
       <r>   -3.0051    0.0000 </r>
       <r>   -1.8591    0.0000 </r>
       <r>   -1.4579    0.0000 </r>
       <r>    0.4128    0.0000 </r>
       <r>    2.1373    0.0000 </r>
       <r>    2.6541    0.0000 </r>
       <r>    3.4960    0.0000 </r>
       <r>    4.2827    0.0000 </r>
       <r>    5.3387    0.0000 </r>
       <r>    5.6792    0.0000 </r>
       <r>    6.1099    0.0000 </r>
      </set>
      <set comment="kpoint 14">
       <r>  -40.8457    1.0000 </r>
       <r>  -40.6486    1.0000 </r>
       <r>  -40.6330    1.0000 </r>
       <r>  -19.9348    1.0000 </r>
       <r>  -18.5883    1.0000 </r>
       <r>  -11.4108    1.0000 </r>
       <r>   -8.6166    1.0000 </r>
       <r>   -8.3587    1.0000 </r>
       <r>   -8.0040    1.0000 </r>
       <r>   -7.4300    1.0000 </r>
       <r>   -7.0144    1.0000 </r>
       <r>   -5.8702    1.0000 </r>
       <r>   -3.1727    0.0000 </r>
       <r>   -2.9726    0.0000 </r>
       <r>   -2.8966    0.0000 </r>
       <r>   -2.7162    0.0000 </r>
       <r>    0.4005    0.0000 </r>
       <r>    1.0236    0.0000 </r>
       <r>    1.8552    0.0000 </r>
       <r>    2.1663    0.0000 </r>
       <r>    2.5578    0.0000 </r>
       <r>    3.1408    0.0000 </r>
       <r>    3.6703    0.0000 </r>
       <r>    3.7376    0.0000 </r>
      </set>
      <set comment="kpoint 15">
       <r>  -40.8406    1.0000 </r>
       <r>  -40.6744    1.0000 </r>
       <r>  -40.6392    1.0000 </r>
       <r>  -19.8326    1.0000 </r>
       <r>  -18.5442    1.0000 </r>
       <r>  -11.2981    1.0000 </r>
       <r>   -8.8260    1.0000 </r>
       <r>   -8.2945    1.0000 </r>
       <r>   -8.2478    1.0000 </r>
       <r>   -7.5995    1.0000 </r>
       <r>   -6.8877    1.0000 </r>
       <r>   -5.9284    1.0000 </r>
       <r>   -3.2972    0.0000 </r>
       <r>   -3.0800    0.0000 </r>
       <r>   -3.0002    0.0000 </r>
       <r>   -2.6279    0.0000 </r>
       <r>    0.5679    0.0000 </r>
       <r>    1.4036    0.0000 </r>
       <r>    2.0001    0.0000 </r>
       <r>    2.3035    0.0000 </r>
       <r>    2.6942    0.0000 </r>
       <r>    3.2766    0.0000 </r>
       <r>    3.8074    0.0000 </r>
       <r>    4.1373    0.0000 </r>
      </set>
      <set comment="kpoint 16">
       <r>  -40.8334    1.0000 </r>
       <r>  -40.7107    1.0000 </r>
       <r>  -40.6479    1.0000 </r>
       <r>  -19.6846    1.0000 </r>
       <r>  -18.4800    1.0000 </r>
       <r>  -11.1473    1.0000 </r>
       <r>   -9.0921    1.0000 </r>
       <r>   -8.5916    1.0000 </r>
       <r>   -8.1224    1.0000 </r>
       <r>   -7.8026    1.0000 </r>
       <r>   -6.8437    1.0000 </r>
       <r>   -6.0397    1.0000 </r>
       <r>   -3.4449    0.0000 </r>
       <r>   -3.1904    0.0000 </r>
       <r>   -3.1111    0.0000 </r>
       <r>   -2.4389    0.0000 </r>
       <r>    0.7773    0.0000 </r>
       <r>    1.8422    0.0000 </r>
       <r>    2.2216    0.0000 </r>
       <r>    2.5420    0.0000 </r>
       <r>    2.8987    0.0000 </r>
       <r>    3.4783    0.0000 </r>
       <r>    4.0010    0.0000 </r>
       <r>    4.2951    0.0000 </r>
      </set>
      <set comment="kpoint 17">
       <r>  -40.8245    1.0000 </r>
       <r>  -40.7548    1.0000 </r>
       <r>  -40.6585    1.0000 </r>
       <r>  -19.4973    1.0000 </r>
       <r>  -18.3982    1.0000 </r>
       <r>  -10.9883    1.0000 </r>
       <r>   -9.3697    1.0000 </r>
       <r>   -8.9064    1.0000 </r>
       <r>   -8.1186    1.0000 </r>
       <r>   -7.8590    1.0000 </r>
       <r>   -6.8966    1.0000 </r>
       <r>   -6.2138    1.0000 </r>
       <r>   -3.5826    0.0000 </r>
       <r>   -3.2429    0.0000 </r>
       <r>   -3.1517    0.0000 </r>
       <r>   -2.2206    0.0000 </r>
       <r>    1.0264    0.0000 </r>
       <r>    2.1687    0.0000 </r>
       <r>    2.4927    0.0000 </r>
       <r>    2.9256    0.0000 </r>
       <r>    3.1796    0.0000 </r>
       <r>    3.7424    0.0000 </r>
       <r>    4.0435    0.0000 </r>
       <r>    4.2511    0.0000 </r>
      </set>
      <set comment="kpoint 18">
       <r>  -40.8146    1.0000 </r>
       <r>  -40.8036    1.0000 </r>
       <r>  -40.6704    1.0000 </r>
       <r>  -19.2796    1.0000 </r>
       <r>  -18.3022    1.0000 </r>
       <r>  -10.8762    1.0000 </r>
       <r>   -9.6051    1.0000 </r>
       <r>   -9.2239    1.0000 </r>
       <r>   -8.3173    1.0000 </r>
       <r>   -7.6857    1.0000 </r>
       <r>   -7.0222    1.0000 </r>
       <r>   -6.4296    1.0000 </r>
       <r>   -3.6552    0.0000 </r>
       <r>   -3.3547    0.0000 </r>
       <r>   -2.9990    0.0000 </r>
       <r>   -2.0098    0.0000 </r>
       <r>    1.3073    0.0000 </r>
       <r>    2.3638    0.0000 </r>
       <r>    2.7892    0.0000 </r>
       <r>    3.1888    0.0000 </r>
       <r>    3.5200    0.0000 </r>
       <r>    3.8541    0.0000 </r>
       <r>    4.0144    0.0000 </r>
       <r>    4.1542    0.0000 </r>
      </set>
      <set comment="kpoint 19">
       <r>  -40.8538    1.0000 </r>
       <r>  -40.8043    1.0000 </r>
       <r>  -40.6827    1.0000 </r>
       <r>  -19.0431    1.0000 </r>
       <r>  -18.1961    1.0000 </r>
       <r>  -10.8822    1.0000 </r>
       <r>   -9.7624    1.0000 </r>
       <r>   -9.5153    1.0000 </r>
       <r>   -8.5132    1.0000 </r>
       <r>   -7.4971    1.0000 </r>
       <r>   -7.1768    1.0000 </r>
       <r>   -6.6281    1.0000 </r>
       <r>   -3.6626    0.0000 </r>
       <r>   -3.4223    0.0000 </r>
       <r>   -2.7750    0.0000 </r>
       <r>   -1.8267    0.0000 </r>
       <r>    1.5996    0.0000 </r>
       <r>    2.4623    0.0000 </r>
       <r>    2.9085    0.0000 </r>
       <r>    3.1691    0.0000 </r>
       <r>    3.5486    0.0000 </r>
       <r>    3.9597    0.0000 </r>
       <r>    4.2019    0.0000 </r>
       <r>    4.5264    0.0000 </r>
      </set>
      <set comment="kpoint 20">
       <r>  -40.9018    1.0000 </r>
       <r>  -40.7944    1.0000 </r>
       <r>  -40.6945    1.0000 </r>
       <r>  -18.8027    1.0000 </r>
       <r>  -18.0853    1.0000 </r>
       <r>  -11.0181    1.0000 </r>
       <r>   -9.9496    1.0000 </r>
       <r>   -9.6733    1.0000 </r>
       <r>   -8.6797    1.0000 </r>
       <r>   -7.3963    1.0000 </r>
       <r>   -7.2691    1.0000 </r>
       <r>   -6.7319    1.0000 </r>
       <r>   -3.6373    0.0000 </r>
       <r>   -3.4199    0.0000 </r>
       <r>   -2.5245    0.0000 </r>
       <r>   -1.6831    0.0000 </r>
       <r>    1.8582    0.0000 </r>
       <r>    2.4021    0.0000 </r>
       <r>    2.5364    0.0000 </r>
       <r>    3.1999    0.0000 </r>
       <r>    3.7460    0.0000 </r>
       <r>    4.2980    0.0000 </r>
       <r>    4.5008    0.0000 </r>
       <r>    4.9748    0.0000 </r>
      </set>
      <set comment="kpoint 21">
       <r>  -40.9445    1.0000 </r>
       <r>  -40.7855    1.0000 </r>
       <r>  -40.7050    1.0000 </r>
       <r>  -18.5768    1.0000 </r>
       <r>  -17.9760    1.0000 </r>
       <r>  -11.2159    1.0000 </r>
       <r>  -10.2004    1.0000 </r>
       <r>   -9.7285    1.0000 </r>
       <r>   -8.8123    1.0000 </r>
       <r>   -7.5027    1.0000 </r>
       <r>   -7.1731    1.0000 </r>
       <r>   -6.7022    1.0000 </r>
       <r>   -3.6048    0.0000 </r>
       <r>   -3.3434    0.0000 </r>
       <r>   -2.2841    0.0000 </r>
       <r>   -1.5851    0.0000 </r>
       <r>    1.7839    0.0000 </r>
       <r>    2.1215    0.0000 </r>
       <r>    2.4664    0.0000 </r>
       <r>    3.2766    0.0000 </r>
       <r>    4.1553    0.0000 </r>
       <r>    4.5138    0.0000 </r>
       <r>    4.9126    0.0000 </r>
       <r>    5.3917    0.0000 </r>
      </set>
      <set comment="kpoint 22">
       <r>  -40.9791    1.0000 </r>
       <r>  -40.7782    1.0000 </r>
       <r>  -40.7136    1.0000 </r>
       <r>  -18.3860    1.0000 </r>
       <r>  -17.8758    1.0000 </r>
       <r>  -11.4109    1.0000 </r>
       <r>  -10.4214    1.0000 </r>
       <r>   -9.7940    1.0000 </r>
       <r>   -8.9110    1.0000 </r>
       <r>   -7.6100    1.0000 </r>
       <r>   -7.0639    1.0000 </r>
       <r>   -6.5873    1.0000 </r>
       <r>   -3.5681    0.0000 </r>
       <r>   -3.2222    0.0000 </r>
       <r>   -2.0791    0.0000 </r>
       <r>   -1.5344    0.0000 </r>
       <r>    1.2311    0.0000 </r>
       <r>    2.1770    0.0000 </r>
       <r>    2.5195    0.0000 </r>
       <r>    3.4369    0.0000 </r>
       <r>    4.3778    0.0000 </r>
       <r>    4.7809    0.0000 </r>
       <r>    5.2719    0.0000 </r>
       <r>    5.7578    0.0000 </r>
      </set>
      <set comment="kpoint 23">
       <r>  -41.0035    1.0000 </r>
       <r>  -40.7730    1.0000 </r>
       <r>  -40.7197    1.0000 </r>
       <r>  -18.2493    1.0000 </r>
       <r>  -17.7957    1.0000 </r>
       <r>  -11.5628    1.0000 </r>
       <r>  -10.5810    1.0000 </r>
       <r>   -9.8648    1.0000 </r>
       <r>   -8.9764    1.0000 </r>
       <r>   -7.6849    1.0000 </r>
       <r>   -6.9725    1.0000 </r>
       <r>   -6.4580    1.0000 </r>
       <r>   -3.5348    0.0000 </r>
       <r>   -3.0942    0.0000 </r>
       <r>   -1.9245    0.0000 </r>
       <r>   -1.5249    0.0000 </r>
       <r>    0.7568    0.0000 </r>
       <r>    2.2210    0.0000 </r>
       <r>    2.6392    0.0000 </r>
       <r>    3.5214    0.0000 </r>
       <r>    4.3774    0.0000 </r>
       <r>    5.0383    0.0000 </r>
       <r>    5.6427    0.0000 </r>
       <r>    5.7503    0.0000 </r>
      </set>
      <set comment="kpoint 24">
       <r>  -41.0161    1.0000 </r>
       <r>  -40.7703    1.0000 </r>
       <r>  -40.7228    1.0000 </r>
       <r>  -18.1788    1.0000 </r>
       <r>  -17.7498    1.0000 </r>
       <r>  -11.6457    1.0000 </r>
       <r>  -10.6644    1.0000 </r>
       <r>   -9.9098    1.0000 </r>
       <r>   -9.0090    1.0000 </r>
       <r>   -7.7228    1.0000 </r>
       <r>   -6.9221    1.0000 </r>
       <r>   -6.3730    1.0000 </r>
       <r>   -3.5157    0.0000 </r>
       <r>   -3.0075    0.0000 </r>
       <r>   -1.8351    0.0000 </r>
       <r>   -1.5366    0.0000 </r>
       <r>    0.4822    0.0000 </r>
       <r>    2.2629    0.0000 </r>
       <r>    2.7326    0.0000 </r>
       <r>    3.5135    0.0000 </r>
       <r>    4.3149    0.0000 </r>
       <r>    5.2637    0.0000 </r>
       <r>    5.5694    0.0000 </r>
       <r>    6.1057    0.0000 </r>
      </set>
      <set comment="kpoint 25">
       <r>  -40.8345    1.0000 </r>
       <r>  -40.7042    1.0000 </r>
       <r>  -40.6472    1.0000 </r>
       <r>  -19.7088    1.0000 </r>
       <r>  -18.4905    1.0000 </r>
       <r>  -11.1695    1.0000 </r>
       <r>   -9.0482    1.0000 </r>
       <r>   -8.5262    1.0000 </r>
       <r>   -8.1466    1.0000 </r>
       <r>   -7.8299    1.0000 </r>
       <r>   -6.7998    1.0000 </r>
       <r>   -6.0170    1.0000 </r>
       <r>   -3.4314    0.0000 </r>
       <r>   -3.2080    0.0000 </r>
       <r>   -3.0990    0.0000 </r>
       <r>   -2.4480    0.0000 </r>
       <r>    0.7476    0.0000 </r>
       <r>    1.8016    0.0000 </r>
       <r>    2.1853    0.0000 </r>
       <r>    2.4933    0.0000 </r>
       <r>    2.8645    0.0000 </r>
       <r>    3.4451    0.0000 </r>
       <r>    3.9716    0.0000 </r>
       <r>    4.3301    0.0000 </r>
      </set>
      <set comment="kpoint 26">
       <r>  -40.8266    1.0000 </r>
       <r>  -40.7424    1.0000 </r>
       <r>  -40.6579    1.0000 </r>
       <r>  -19.5428    1.0000 </r>
       <r>  -18.4180    1.0000 </r>
       <r>  -11.0174    1.0000 </r>
       <r>   -9.3000    1.0000 </r>
       <r>   -8.7845    1.0000 </r>
       <r>   -8.1826    1.0000 </r>
       <r>   -7.9280    1.0000 </r>
       <r>   -6.7802    1.0000 </r>
       <r>   -6.1600    1.0000 </r>
       <r>   -3.5765    0.0000 </r>
       <r>   -3.2505    0.0000 </r>
       <r>   -3.2151    0.0000 </r>
       <r>   -2.2225    0.0000 </r>
       <r>    0.9759    0.0000 </r>
       <r>    2.1679    0.0000 </r>
       <r>    2.4349    0.0000 </r>
       <r>    2.8321    0.0000 </r>
       <r>    3.1059    0.0000 </r>
       <r>    3.6780    0.0000 </r>
       <r>    4.1116    0.0000 </r>
       <r>    4.2415    0.0000 </r>
      </set>
      <set comment="kpoint 27">
       <r>  -40.8174    1.0000 </r>
       <r>  -40.7866    1.0000 </r>
       <r>  -40.6704    1.0000 </r>
       <r>  -19.3423    1.0000 </r>
       <r>  -18.3295    1.0000 </r>
       <r>  -10.8833    1.0000 </r>
       <r>   -9.5324    1.0000 </r>
       <r>   -9.0685    1.0000 </r>
       <r>   -8.4293    1.0000 </r>
       <r>   -7.7879    1.0000 </r>
       <r>   -6.8449    1.0000 </r>
       <r>   -6.3489    1.0000 </r>
       <r>   -3.6935    0.0000 </r>
       <r>   -3.3089    0.0000 </r>
       <r>   -3.1743    0.0000 </r>
       <r>   -1.9960    0.0000 </r>
       <r>    1.2456    0.0000 </r>
       <r>    2.4219    0.0000 </r>
       <r>    2.7126    0.0000 </r>
       <r>    3.2255    0.0000 </r>
       <r>    3.4380    0.0000 </r>
       <r>    3.9118    0.0000 </r>
       <r>    3.9857    0.0000 </r>
       <r>    4.2959    0.0000 </r>
      </set>
      <set comment="kpoint 28">
       <r>  -40.8336    1.0000 </r>
       <r>  -40.8075    1.0000 </r>
       <r>  -40.6839    1.0000 </r>
       <r>  -19.1175    1.0000 </r>
       <r>  -18.2288    1.0000 </r>
       <r>  -10.8338    1.0000 </r>
       <r>   -9.6922    1.0000 </r>
       <r>   -9.3746    1.0000 </r>
       <r>   -8.6407    1.0000 </r>
       <r>   -7.6482    1.0000 </r>
       <r>   -6.9696    1.0000 </r>
       <r>   -6.5404    1.0000 </r>
       <r>   -3.7551    0.0000 </r>
       <r>   -3.3541    0.0000 </r>
       <r>   -3.0054    0.0000 </r>
       <r>   -1.7956    0.0000 </r>
       <r>    1.5443    0.0000 </r>
       <r>    2.5790    0.0000 </r>
       <r>    3.0153    0.0000 </r>
       <r>    3.2507    0.0000 </r>
       <r>    3.6718    0.0000 </r>
       <r>    3.9189    0.0000 </r>
       <r>    4.1572    0.0000 </r>
       <r>    4.3872    0.0000 </r>
      </set>
      <set comment="kpoint 29">
       <r>  -40.8802    1.0000 </r>
       <r>  -40.7976    1.0000 </r>
       <r>  -40.6973    1.0000 </r>
       <r>  -18.8814    1.0000 </r>
       <r>  -18.1204    1.0000 </r>
       <r>  -10.9139    1.0000 </r>
       <r>   -9.8223    1.0000 </r>
       <r>   -9.6196    1.0000 </r>
       <r>   -8.7934    1.0000 </r>
       <r>   -7.5616    1.0000 </r>
       <r>   -7.1175    1.0000 </r>
       <r>   -6.6583    1.0000 </r>
       <r>   -3.7537    0.0000 </r>
       <r>   -3.3514    0.0000 </r>
       <r>   -2.7796    0.0000 </r>
       <r>   -1.6387    0.0000 </r>
       <r>    1.8465    0.0000 </r>
       <r>    2.6413    0.0000 </r>
       <r>    2.8025    0.0000 </r>
       <r>    3.3097    0.0000 </r>
       <r>    3.6831    0.0000 </r>
       <r>    4.2091    0.0000 </r>
       <r>    4.4250    0.0000 </r>
       <r>    4.8150    0.0000 </r>
      </set>
      <set comment="kpoint 30">
       <r>  -40.9232    1.0000 </r>
       <r>  -40.7883    1.0000 </r>
       <r>  -40.7098    1.0000 </r>
       <r>  -18.6507    1.0000 </r>
       <r>  -18.0100    1.0000 </r>
       <r>  -11.0821    1.0000 </r>
       <r>  -10.0835    1.0000 </r>
       <r>   -9.6818    1.0000 </r>
       <r>   -8.8957    1.0000 </r>
       <r>   -7.5316    1.0000 </r>
       <r>   -7.2623    1.0000 </r>
       <r>   -6.6502    1.0000 </r>
       <r>   -3.6950    0.0000 </r>
       <r>   -3.3110    0.0000 </r>
       <r>   -2.5344    0.0000 </r>
       <r>   -1.5369    0.0000 </r>
       <r>    2.0600    0.0000 </r>
       <r>    2.2840    0.0000 </r>
       <r>    2.6607    0.0000 </r>
       <r>    3.3578    0.0000 </r>
       <r>    4.0257    0.0000 </r>
       <r>    4.5026    0.0000 </r>
       <r>    4.7703    0.0000 </r>
       <r>    5.2557    0.0000 </r>
      </set>
      <set comment="kpoint 31">
       <r>  -40.9600    1.0000 </r>
       <r>  -40.7803    1.0000 </r>
       <r>  -40.7205    1.0000 </r>
       <r>  -18.4446    1.0000 </r>
       <r>  -17.9044    1.0000 </r>
       <r>  -11.2706    1.0000 </r>
       <r>  -10.3462    1.0000 </r>
       <r>   -9.7324    1.0000 </r>
       <r>   -8.9596    1.0000 </r>
       <r>   -7.5516    1.0000 </r>
       <r>   -7.3414    1.0000 </r>
       <r>   -6.5514    1.0000 </r>
       <r>   -3.6065    0.0000 </r>
       <r>   -3.2374    0.0000 </r>
       <r>   -2.2975    0.0000 </r>
       <r>   -1.4972    0.0000 </r>
       <r>    1.5948    0.0000 </r>
       <r>    2.3503    0.0000 </r>
       <r>    2.6823    0.0000 </r>
       <r>    3.4752    0.0000 </r>
       <r>    4.3918    0.0000 </r>
       <r>    4.7100    0.0000 </r>
       <r>    5.1488    0.0000 </r>
       <r>    5.5284    0.0000 </r>
      </set>
      <set comment="kpoint 32">
       <r>  -40.9880    1.0000 </r>
       <r>  -40.7742    1.0000 </r>
       <r>  -40.7288    1.0000 </r>
       <r>  -18.2832    1.0000 </r>
       <r>  -17.8127    1.0000 </r>
       <r>  -11.4342    1.0000 </r>
       <r>  -10.5522    1.0000 </r>
       <r>   -9.8074    1.0000 </r>
       <r>   -8.9957    1.0000 </r>
       <r>   -7.6336    1.0000 </r>
       <r>   -7.3142    1.0000 </r>
       <r>   -6.4198    1.0000 </r>
       <r>   -3.5376    0.0000 </r>
       <r>   -3.1257    0.0000 </r>
       <r>   -2.0845    0.0000 </r>
       <r>   -1.5195    0.0000 </r>
       <r>    1.0611    0.0000 </r>
       <r>    2.4707    0.0000 </r>
       <r>    2.7990    0.0000 </r>
       <r>    3.5824    0.0000 </r>
       <r>    4.4901    0.0000 </r>
       <r>    4.9139    0.0000 </r>
       <r>    5.3382    0.0000 </r>
       <r>    5.6154    0.0000 </r>
      </set>
      <set comment="kpoint 33">
       <r>  -41.0055    1.0000 </r>
       <r>  -40.7704    1.0000 </r>
       <r>  -40.7339    1.0000 </r>
       <r>  -18.1817    1.0000 </r>
       <r>  -17.7480    1.0000 </r>
       <r>  -11.5444    1.0000 </r>
       <r>  -10.6825    1.0000 </r>
       <r>   -9.8732    1.0000 </r>
       <r>   -9.0130    1.0000 </r>
       <r>   -7.7044    1.0000 </r>
       <r>   -7.2689    1.0000 </r>
       <r>   -6.3063    1.0000 </r>
       <r>   -3.5103    0.0000 </r>
       <r>   -3.0069    0.0000 </r>
       <r>   -1.9046    0.0000 </r>
       <r>   -1.5927    0.0000 </r>
       <r>    0.6773    0.0000 </r>
       <r>    2.5755    0.0000 </r>
       <r>    2.9423    0.0000 </r>
       <r>    3.5792    0.0000 </r>
       <r>    4.3938    0.0000 </r>
       <r>    5.0223    0.0000 </r>
       <r>    5.4319    0.0000 </r>
       <r>    6.0196    0.0000 </r>
      </set>
      <set comment="kpoint 34">
       <r>  -41.0115    1.0000 </r>
       <r>  -40.7690    1.0000 </r>
       <r>  -40.7357    1.0000 </r>
       <r>  -18.1473    1.0000 </r>
       <r>  -17.7243    1.0000 </r>
       <r>  -11.5832    1.0000 </r>
       <r>  -10.7270    1.0000 </r>
       <r>   -9.8989    1.0000 </r>
       <r>   -9.0180    1.0000 </r>
       <r>   -7.7303    1.0000 </r>
       <r>   -7.2508    1.0000 </r>
       <r>   -6.2608    1.0000 </r>
       <r>   -3.5056    0.0000 </r>
       <r>   -2.9541    0.0000 </r>
       <r>   -1.7994    0.0000 </r>
       <r>   -1.6642    0.0000 </r>
       <r>    0.5355    0.0000 </r>
       <r>    2.6272    0.0000 </r>
       <r>    3.0103    0.0000 </r>
       <r>    3.5485    0.0000 </r>
       <r>    4.3204    0.0000 </r>
       <r>    5.0691    0.0000 </r>
       <r>    5.5124    0.0000 </r>
       <r>    6.1782    0.0000 </r>
      </set>
      <set comment="kpoint 35">
       <r>  -40.8184    1.0000 </r>
       <r>  -40.7802    1.0000 </r>
       <r>  -40.6710    1.0000 </r>
       <r>  -19.3635    1.0000 </r>
       <r>  -18.3387    1.0000 </r>
       <r>  -10.8864    1.0000 </r>
       <r>   -9.5039    1.0000 </r>
       <r>   -8.9863    1.0000 </r>
       <r>   -8.5057    1.0000 </r>
       <r>   -7.8267    1.0000 </r>
       <r>   -6.7692    1.0000 </r>
       <r>   -6.3180    1.0000 </r>
       <r>   -3.7087    0.0000 </r>
       <r>   -3.2948    0.0000 </r>
       <r>   -3.2485    0.0000 </r>
       <r>   -1.9850    0.0000 </r>
       <r>    1.2258    0.0000 </r>
       <r>    2.4554    0.0000 </r>
       <r>    2.6882    0.0000 </r>
       <r>    3.2330    0.0000 </r>
       <r>    3.4032    0.0000 </r>
       <r>    3.9100    0.0000 </r>
       <r>    3.9854    0.0000 </r>
       <r>    4.4291    0.0000 </r>
      </set>
      <set comment="kpoint 36">
       <r>  -40.8216    1.0000 </r>
       <r>  -40.8091    1.0000 </r>
       <r>  -40.6861    1.0000 </r>
       <r>  -19.1556    1.0000 </r>
       <r>  -18.2453    1.0000 </r>
       <r>  -10.8082    1.0000 </r>
       <r>   -9.6505    1.0000 </r>
       <r>   -9.2380    1.0000 </r>
       <r>   -8.7884    1.0000 </r>
       <r>   -7.7379    1.0000 </r>
       <r>   -6.8292    1.0000 </r>
       <r>   -6.4852    1.0000 </r>
       <r>   -3.8078    0.0000 </r>
       <r>   -3.3221    0.0000 </r>
       <r>   -3.1605    0.0000 </r>
       <r>   -1.7664    0.0000 </r>
       <r>    1.5168    0.0000 </r>
       <r>    2.6746    0.0000 </r>
       <r>    2.9873    0.0000 </r>
       <r>    3.4317    0.0000 </r>
       <r>    3.6927    0.0000 </r>
       <r>    3.9726    0.0000 </r>
       <r>    4.2111    0.0000 </r>
       <r>    4.3352    0.0000 </r>
      </set>
      <set comment="kpoint 37">
       <r>  -40.8638    1.0000 </r>
       <r>  -40.7996    1.0000 </r>
       <r>  -40.7019    1.0000 </r>
       <r>  -18.9305    1.0000 </r>
       <r>  -18.1416    1.0000 </r>
       <r>  -10.8372    1.0000 </r>
       <r>   -9.7233    1.0000 </r>
       <r>   -9.5415    1.0000 </r>
       <r>   -8.9502    1.0000 </r>
       <r>   -7.7199    1.0000 </r>
       <r>   -6.9408    1.0000 </r>
       <r>   -6.6065    1.0000 </r>
       <r>   -3.8371    0.0000 </r>
       <r>   -3.3080    0.0000 </r>
       <r>   -2.9950    0.0000 </r>
       <r>   -1.5903    0.0000 </r>
       <r>    1.8324    0.0000 </r>
       <r>    2.8111    0.0000 </r>
       <r>    3.0985    0.0000 </r>
       <r>    3.3449    0.0000 </r>
       <r>    3.8281    0.0000 </r>
       <r>    4.1534    0.0000 </r>
       <r>    4.4307    0.0000 </r>
       <r>    4.7010    0.0000 </r>
      </set>
      <set comment="kpoint 38">
       <r>  -40.9042    1.0000 </r>
       <r>  -40.7903    1.0000 </r>
       <r>  -40.7173    1.0000 </r>
       <r>  -18.7028    1.0000 </r>
       <r>  -18.0327    1.0000 </r>
       <r>  -10.9620    1.0000 </r>
       <r>   -9.9629    1.0000 </r>
       <r>   -9.6369    1.0000 </r>
       <r>   -9.0262    1.0000 </r>
       <r>   -7.7639    1.0000 </r>
       <r>   -7.0981    1.0000 </r>
       <r>   -6.6226    1.0000 </r>
       <r>   -3.7823    0.0000 </r>
       <r>   -3.2718    0.0000 </r>
       <r>   -2.7836    0.0000 </r>
[...]
       <r>     5.0750     1.1977    22.5900 </r>
       <r>     5.0855     1.1334    22.6020 </r>
       <r>     5.0960     1.1047    22.6136 </r>
       <r>     5.1065     1.1251    22.6254 </r>
       <r>     5.1170     1.1907    22.6379 </r>
       <r>     5.1275     1.2824    22.6514 </r>
       <r>     5.1381     1.3730    22.6658 </r>
       <r>     5.1486     1.4378    22.6810 </r>
       <r>     5.1591     1.4629    22.6963 </r>
       <r>     5.1696     1.4488    22.7116 </r>
       <r>     5.1801     1.4081    22.7264 </r>
       <r>     5.1906     1.3592    22.7407 </r>
       <r>     5.2011     1.3193    22.7546 </r>
       <r>     5.2117     1.2992    22.7682 </r>
       <r>     5.2222     1.3004    22.7819 </r>
       <r>     5.2327     1.3160    22.7957 </r>
       <r>     5.2432     1.3338    22.8097 </r>
       <r>     5.2537     1.3411    22.8238 </r>
       <r>     5.2642     1.3301    22.8378 </r>
       <r>     5.2747     1.3007    22.8515 </r>
       <r>     5.2853     1.2613    22.8648 </r>
       <r>     5.2958     1.2240    22.8776 </r>
       <r>     5.3063     1.1996    22.8903 </r>
       <r>     5.3168     1.1928    22.9028 </r>
       <r>     5.3273     1.2014    22.9154 </r>
       <r>     5.3378     1.2191    22.9283 </r>
       <r>     5.3484     1.2393    22.9413 </r>
       <r>     5.3589     1.2576    22.9545 </r>
       <r>     5.3694     1.2716    22.9679 </r>
       <r>     5.3799     1.2794    22.9813 </r>
       <r>     5.3904     1.2777    22.9948 </r>
       <r>     5.4009     1.2611    23.0080 </r>
       <r>     5.4114     1.2234    23.0209 </r>
       <r>     5.4220     1.1594    23.0331 </r>
       <r>     5.4325     1.0684    23.0443 </r>
       <r>     5.4430     0.9578    23.0544 </r>
       <r>     5.4535     0.8445    23.0633 </r>
       <r>     5.4640     0.7532    23.0712 </r>
       <r>     5.4745     0.7105    23.0787 </r>
       <r>     5.4850     0.7369    23.0864 </r>
       <r>     5.4956     0.8380    23.0952 </r>
       <r>     5.5061     1.0003    23.1057 </r>
       <r>     5.5166     1.1923    23.1183 </r>
       <r>     5.5271     1.3735    23.1327 </r>
       <r>     5.5376     1.5069    23.1486 </r>
       <r>     5.5481     1.5719    23.1651 </r>
       <r>     5.5586     1.5715    23.1816 </r>
       <r>     5.5692     1.5308    23.1977 </r>
       <r>     5.5797     1.4859    23.2133 </r>
       <r>     5.5902     1.4683    23.2288 </r>
       <r>     5.6007     1.4911    23.2444 </r>
       <r>     5.6112     1.5433    23.2607 </r>
       <r>     5.6217     1.5956    23.2775 </r>
       <r>     5.6323     1.6137    23.2944 </r>
       <r>     5.6428     1.5744    23.3110 </r>
       <r>     5.6533     1.4746    23.3265 </r>
       <r>     5.6638     1.3317    23.3405 </r>
       <r>     5.6743     1.1756    23.3528 </r>
       <r>     5.6848     1.0385    23.3638 </r>
       <r>     5.6953     0.9454    23.3737 </r>
       <r>     5.7059     0.9090    23.3833 </r>
       <r>     5.7164     0.9280    23.3930 </r>
       <r>     5.7269     0.9875    23.4034 </r>
       <r>     5.7374     1.0622    23.4146 </r>
       <r>     5.7479     1.1233    23.4264 </r>
       <r>     5.7584     1.1469    23.4384 </r>
       <r>     5.7689     1.1221    23.4502 </r>
       <r>     5.7795     1.0543    23.4613 </r>
       <r>     5.7900     0.9618    23.4714 </r>
       <r>     5.8005     0.8677    23.4806 </r>
       <r>     5.8110     0.7910    23.4889 </r>
       <r>     5.8215     0.7421    23.4967 </r>
       <r>     5.8320     0.7229    23.5043 </r>
       <r>     5.8425     0.7308    23.5120 </r>
       <r>     5.8531     0.7628    23.5200 </r>
       <r>     5.8636     0.8162    23.5286 </r>
       <r>     5.8741     0.8875    23.5379 </r>
       <r>     5.8846     0.9692    23.5481 </r>
       <r>     5.8951     1.0481    23.5591 </r>
       <r>     5.9056     1.1084    23.5708 </r>
       <r>     5.9162     1.1356    23.5827 </r>
       <r>     5.9267     1.1234    23.5945 </r>
       <r>     5.9372     1.0754    23.6058 </r>
       <r>     5.9477     1.0050    23.6164 </r>
       <r>     5.9582     0.9296    23.6262 </r>
       <r>     5.9687     0.8646    23.6353 </r>
       <r>     5.9792     0.8196    23.6439 </r>
       <r>     5.9898     0.7963    23.6523 </r>
       <r>     6.0003     0.7898    23.6606 </r>
       <r>     6.0108     0.7910    23.6689 </r>
       <r>     6.0213     0.7898    23.6772 </r>
       <r>     6.0318     0.7775    23.6854 </r>
       <r>     6.0423     0.7499    23.6932 </r>
       <r>     6.0528     0.7091    23.7007 </r>
       <r>     6.0634     0.6627    23.7077 </r>
       <r>     6.0739     0.6213    23.7142 </r>
       <r>     6.0844     0.5933    23.7204 </r>
       <r>     6.0949     0.5817    23.7266 </r>
       <r>     6.1054     0.5832    23.7327 </r>
       <r>     6.1159     0.5898    23.7389 </r>
       <r>     6.1264     0.5937    23.7451 </r>
       <r>     6.1370     0.5905    23.7513 </r>
       <r>     6.1475     0.5809    23.7574 </r>
       <r>     6.1580     0.5706    23.7634 </r>
       <r>     6.1685     0.5677    23.7694 </r>
       <r>     6.1790     0.5801    23.7755 </r>
       <r>     6.1895     0.6123    23.7820 </r>
       <r>     6.2001     0.6629    23.7889 </r>
       <r>     6.2106     0.7228    23.7965 </r>
       <r>     6.2211     0.7762    23.8047 </r>
       <r>     6.2316     0.8057    23.8132 </r>
       <r>     6.2421     0.7991    23.8216 </r>
       <r>     6.2526     0.7551    23.8295 </r>
       <r>     6.2631     0.6844    23.8367 </r>
       <r>     6.2737     0.6052    23.8431 </r>
       <r>     6.2842     0.5354    23.8487 </r>
       <r>     6.2947     0.4855    23.8538 </r>
       <r>     6.3052     0.4565    23.8586 </r>
       <r>     6.3157     0.4419    23.8632 </r>
       <r>     6.3262     0.4318    23.8678 </r>
       <r>     6.3367     0.4184    23.8722 </r>
       <r>     6.3473     0.3979    23.8764 </r>
       <r>     6.3578     0.3721    23.8803 </r>
       <r>     6.3683     0.3463    23.8839 </r>
       <r>     6.3788     0.3279    23.8874 </r>
       <r>     6.3893     0.3233    23.8908 </r>
       <r>     6.3998     0.3362    23.8943 </r>
       <r>     6.4104     0.3674    23.8982 </r>
       <r>     6.4209     0.4154    23.9025 </r>
       <r>     6.4314     0.4774    23.9076 </r>
       <r>     6.4419     0.5491    23.9133 </r>
       <r>     6.4524     0.6234    23.9199 </r>
       <r>     6.4629     0.6893    23.9271 </r>
       <r>     6.4734     0.7333    23.9348 </r>
       <r>     6.4840     0.7429    23.9427 </r>
       <r>     6.4945     0.7112    23.9501 </r>
       <r>     6.5050     0.6402    23.9569 </r>
       <r>     6.5155     0.5408    23.9625 </r>
       <r>     6.5260     0.4295    23.9671 </r>
       <r>     6.5365     0.3234    23.9705 </r>
       <r>     6.5470     0.2369    23.9730 </r>
       <r>     6.5576     0.1786    23.9748 </r>
       <r>     6.5681     0.1509    23.9764 </r>
       <r>     6.5786     0.1507    23.9780 </r>
       <r>     6.5891     0.1702    23.9798 </r>
       <r>     6.5996     0.1984    23.9819 </r>
       <r>     6.6101     0.2234    23.9842 </r>
       <r>     6.6206     0.2355    23.9867 </r>
       <r>     6.6312     0.2293    23.9891 </r>
       <r>     6.6417     0.2052    23.9913 </r>
       <r>     6.6522     0.1684    23.9930 </r>
       <r>     6.6627     0.1269    23.9944 </r>
       <r>     6.6732     0.0880    23.9953 </r>
       <r>     6.6837     0.0569    23.9959 </r>
       <r>     6.6943     0.0356    23.9963 </r>
       <r>     6.7048     0.0237    23.9965 </r>
       <r>     6.7153     0.0197    23.9967 </r>
       <r>     6.7258     0.0211    23.9970 </r>
       <r>     6.7363     0.0259    23.9972 </r>
       <r>     6.7468     0.0317    23.9976 </r>
       <r>     6.7573     0.0365    23.9979 </r>
       <r>     6.7679     0.0390    23.9984 </r>
       <r>     6.7784     0.0382    23.9988 </r>
       <r>     6.7889     0.0342    23.9991 </r>
       <r>     6.7994     0.0282    23.9994 </r>
       <r>     6.8099     0.0212    23.9996 </r>
       <r>     6.8204     0.0146    23.9998 </r>
       <r>     6.8309     0.0092    23.9999 </r>
       <r>     6.8415     0.0054    23.9999 </r>
       <r>     6.8520     0.0028    24.0000 </r>
       <r>     6.8625     0.0014    24.0000 </r>
       <r>     6.8730     0.0006    24.0000 </r>
       <r>     6.8835     0.0002    24.0000 </r>
       <r>     6.8940     0.0001    24.0000 </r>
       <r>     6.9045     0.0000    24.0000 </r>
       <r>     6.9151     0.0000    24.0000 </r>
       <r>     6.9256     0.0000    24.0000 </r>
       <r>     6.9361     0.0000    24.0000 </r>
       <r>     6.9466     0.0000    24.0000 </r>
       <r>     6.9571     0.0000    24.0000 </r>
       <r>     6.9676     0.0000    24.0000 </r>
       <r>     6.9782     0.0000    24.0000 </r>
       <r>     6.9887     0.0000    24.0000 </r>
       <r>     6.9992     0.0000    24.0000 </r>
       <r>     7.0097     0.0000    24.0000 </r>
       <r>     7.0202     0.0000    24.0000 </r>
       <r>     7.0307     0.0000    24.0000 </r>
       <r>     7.0412     0.0000    24.0000 </r>
       <r>     7.0518     0.0000    24.0000 </r>
       <r>     7.0623     0.0000    24.0000 </r>
       <r>     7.0728     0.0000    24.0000 </r>
       <r>     7.0833     0.0000    24.0000 </r>
       <r>     7.0938     0.0000    24.0000 </r>
       <r>     7.1043     0.0000    24.0000 </r>
       <r>     7.1148     0.0000    24.0000 </r>
       <r>     7.1254     0.0000    24.0000 </r>
       <r>     7.1359     0.0000    24.0000 </r>
       <r>     7.1464     0.0000    24.0000 </r>
       <r>     7.1569     0.0000    24.0000 </r>
       <r>     7.1674     0.0000    24.0000 </r>
       <r>     7.1779     0.0000    24.0000 </r>
       <r>     7.1884     0.0000    24.0000 </r>
       <r>     7.1990     0.0000    24.0000 </r>
       <r>     7.2095     0.0000    24.0000 </r>
       <r>     7.2200     0.0000    24.0000 </r>
       <r>     7.2305     0.0000    24.0000 </r>
       <r>     7.2410     0.0000    24.0000 </r>
       <r>     7.2515     0.0000    24.0000 </r>
       <r>     7.2621     0.0000    24.0000 </r>
       <r>     7.2726     0.0000    24.0000 </r>
       <r>     7.2831     0.0000    24.0000 </r>
       <r>     7.2936     0.0000    24.0000 </r>
       <r>     7.3041     0.0000    24.0000 </r>
       <r>     7.3146     0.0000    24.0000 </r>
       <r>     7.3251     0.0000    24.0000 </r>
       <r>     7.3357     0.0000    24.0000 </r>
       <r>     7.3462     0.0000    24.0000 </r>
       <r>     7.3567     0.0000    24.0000 </r>
       <r>     7.3672     0.0000    24.0000 </r>
       <r>     7.3777     0.0000    24.0000 </r>
       <r>     7.3882     0.0000    24.0000 </r>
       <r>     7.3987     0.0000    24.0000 </r>
       <r>     7.4093     0.0000    24.0000 </r>
       <r>     7.4198     0.0000    24.0000 </r>
       <r>     7.4303     0.0000    24.0000 </r>
       <r>     7.4408     0.0000    24.0000 </r>
       <r>     7.4513     0.0000    24.0000 </r>
       <r>     7.4618     0.0000    24.0000 </r>
       <r>     7.4724     0.0000    24.0000 </r>
       <r>     7.4829     0.0000    24.0000 </r>
       <r>     7.4934     0.0000    24.0000 </r>
       <r>     7.5039     0.0000    24.0000 </r>
       <r>     7.5144     0.0000    24.0000 </r>
       <r>     7.5249     0.0000    24.0000 </r>
       <r>     7.5354     0.0000    24.0000 </r>
       <r>     7.5460     0.0000    24.0000 </r>
       <r>     7.5565     0.0000    24.0000 </r>
       <r>     7.5670     0.0000    24.0000 </r>
       <r>     7.5775     0.0000    24.0000 </r>
       <r>     7.5880     0.0000    24.0000 </r>
       <r>     7.5985     0.0000    24.0000 </r>
       <r>     7.6090     0.0000    24.0000 </r>
       <r>     7.6196     0.0000    24.0000 </r>
       <r>     7.6301     0.0000    24.0000 </r>
       <r>     7.6406     0.0000    24.0000 </r>
       <r>     7.6511     0.0000    24.0000 </r>
       <r>     7.6616     0.0000    24.0000 </r>
       <r>     7.6721     0.0000    24.0000 </r>
       <r>     7.6826     0.0000    24.0000 </r>
       <r>     7.6932     0.0000    24.0000 </r>
       <r>     7.7037     0.0000    24.0000 </r>
       <r>     7.7142     0.0000    24.0000 </r>
       <r>     7.7247     0.0000    24.0000 </r>
       <r>     7.7352     0.0000    24.0000 </r>
       <r>     7.7457     0.0000    24.0000 </r>
       <r>     7.7563     0.0000    24.0000 </r>
       <r>     7.7668     0.0000    24.0000 </r>
       <r>     7.7773     0.0000    24.0000 </r>
       <r>     7.7878     0.0000    24.0000 </r>
       <r>     7.7983     0.0000    24.0000 </r>
       <r>     7.8088     0.0000    24.0000 </r>
       <r>     7.8193     0.0000    24.0000 </r>
       <r>     7.8299     0.0000    24.0000 </r>
       <r>     7.8404     0.0000    24.0000 </r>
       <r>     7.8509     0.0000    24.0000 </r>
       <r>     7.8614     0.0000    24.0000 </r>
       <r>     7.8719     0.0000    24.0000 </r>
       <r>     7.8824     0.0000    24.0000 </r>
       <r>     7.8929     0.0000    24.0000 </r>
       <r>     7.9035     0.0000    24.0000 </r>
       <r>     7.9140     0.0000    24.0000 </r>
       <r>     7.9245     0.0000    24.0000 </r>
       <r>     7.9350     0.0000    24.0000 </r>
       <r>     7.9455     0.0000    24.0000 </r>
       <r>     7.9560     0.0000    24.0000 </r>
       <r>     7.9665     0.0000    24.0000 </r>
       <r>     7.9771     0.0000    24.0000 </r>
       <r>     7.9876     0.0000    24.0000 </r>
       <r>     7.9981     0.0000    24.0000 </r>
       <r>     8.0086     0.0000    24.0000 </r>
       <r>     8.0191     0.0000    24.0000 </r>
       <r>     8.0296     0.0000    24.0000 </r>
       <r>     8.0402     0.0000    24.0000 </r>
       <r>     8.0507     0.0000    24.0000 </r>
       <r>     8.0612     0.0000    24.0000 </r>
       <r>     8.0717     0.0000    24.0000 </r>
       <r>     8.0822     0.0000    24.0000 </r>
       <r>     8.0927     0.0000    24.0000 </r>
       <r>     8.1032     0.0000    24.0000 </r>
       <r>     8.1138     0.0000    24.0000 </r>
       <r>     8.1243     0.0000    24.0000 </r>
       <r>     8.1348     0.0000    24.0000 </r>
       <r>     8.1453     0.0000    24.0000 </r>
       <r>     8.1558     0.0000    24.0000 </r>
       <r>     8.1663     0.0000    24.0000 </r>
       <r>     8.1768     0.0000    24.0000 </r>
       <r>     8.1874     0.0000    24.0000 </r>
       <r>     8.1979     0.0000    24.0000 </r>
       <r>     8.2084     0.0000    24.0000 </r>
       <r>     8.2189     0.0000    24.0000 </r>
       <r>     8.2294     0.0000    24.0000 </r>
       <r>     8.2399     0.0000    24.0000 </r>
       <r>     8.2505     0.0000    24.0000 </r>
       <r>     8.2610     0.0000    24.0000 </r>
       <r>     8.2715     0.0000    24.0000 </r>
       <r>     8.2820     0.0000    24.0000 </r>
       <r>     8.2925     0.0000    24.0000 </r>
       <r>     8.3030     0.0000    24.0000 </r>
       <r>     8.3135     0.0000    24.0000 </r>
       <r>     8.3241     0.0000    24.0000 </r>
       <r>     8.3346     0.0000    24.0000 </r>
       <r>     8.3451     0.0000    24.0000 </r>
       <r>     8.3556     0.0000    24.0000 </r>
       <r>     8.3661     0.0000    24.0000 </r>
       <r>     8.3766     0.0000    24.0000 </r>
       <r>     8.3871     0.0000    24.0000 </r>
       <r>     8.3977     0.0000    24.0000 </r>
       <r>     8.4082     0.0000    24.0000 </r>
       <r>     8.4187     0.0000    24.0000 </r>
       <r>     8.4292     0.0000    24.0000 </r>
       <r>     8.4397     0.0000    24.0000 </r>
       <r>     8.4502     0.0000    24.0000 </r>
       <r>     8.4607     0.0000    24.0000 </r>
       <r>     8.4713     0.0000    24.0000 </r>
       <r>     8.4818     0.0000    24.0000 </r>
       <r>     8.4923     0.0000    24.0000 </r>
       <r>     8.5028     0.0000    24.0000 </r>
       <r>     8.5133     0.0000    24.0000 </r>
       <r>     8.5238     0.0000    24.0000 </r>
       <r>     8.5344     0.0000    24.0000 </r>
       <r>     8.5449     0.0000    24.0000 </r>
       <r>     8.5554     0.0000    24.0000 </r>
       <r>     8.5659     0.0000    24.0000 </r>
       <r>     8.5764     0.0000    24.0000 </r>
       <r>     8.5869     0.0000    24.0000 </r>
       <r>     8.5974     0.0000    24.0000 </r>
       <r>     8.6080     0.0000    24.0000 </r>
       <r>     8.6185     0.0000    24.0000 </r>
       <r>     8.6290     0.0000    24.0000 </r>
       <r>     8.6395     0.0000    24.0000 </r>
       <r>     8.6500     0.0000    24.0000 </r>
       <r>     8.6605     0.0000    24.0000 </r>
       <r>     8.6710     0.0000    24.0000 </r>
       <r>     8.6816     0.0000    24.0000 </r>
       <r>     8.6921     0.0000    24.0000 </r>
       <r>     8.7026     0.0000    24.0000 </r>
       <r>     8.7131     0.0000    24.0000 </r>
       <r>     8.7236     0.0000    24.0000 </r>
       <r>     8.7341     0.0000    24.0000 </r>
       <r>     8.7446     0.0000    24.0000 </r>
       <r>     8.7552     0.0000    24.0000 </r>
       <r>     8.7657     0.0000    24.0000 </r>
       <r>     8.7762     0.0000    24.0000 </r>
       <r>     8.7867     0.0000    24.0000 </r>
       <r>     8.7972     0.0000    24.0000 </r>
       <r>     8.8077     0.0000    24.0000 </r>
       <r>     8.8183     0.0000    24.0000 </r>
       <r>     8.8288     0.0000    24.0000 </r>
       <r>     8.8393     0.0000    24.0000 </r>
       <r>     8.8498     0.0000    24.0000 </r>
       <r>     8.8603     0.0000    24.0000 </r>
       <r>     8.8708     0.0000    24.0000 </r>
       <r>     8.8813     0.0000    24.0000 </r>
       <r>     8.8919     0.0000    24.0000 </r>
       <r>     8.9024     0.0000    24.0000 </r>
       <r>     8.9129     0.0000    24.0000 </r>
       <r>     8.9234     0.0000    24.0000 </r>
       <r>     8.9339     0.0000    24.0000 </r>
       <r>     8.9444     0.0000    24.0000 </r>
       <r>     8.9549     0.0000    24.0000 </r>
       <r>     8.9655     0.0000    24.0000 </r>
       <r>     8.9760     0.0000    24.0000 </r>
       <r>     8.9865     0.0000    24.0000 </r>
       <r>     8.9970     0.0000    24.0000 </r>
       <r>     9.0075     0.0000    24.0000 </r>
       <r>     9.0180     0.0000    24.0000 </r>
       <r>     9.0285     0.0000    24.0000 </r>
       <r>     9.0391     0.0000    24.0000 </r>
       <r>     9.0496     0.0000    24.0000 </r>
       <r>     9.0601     0.0000    24.0000 </r>
       <r>     9.0706     0.0000    24.0000 </r>
       <r>     9.0811     0.0000    24.0000 </r>
       <r>     9.0916     0.0000    24.0000 </r>
       <r>     9.1022     0.0000    24.0000 </r>
       <r>     9.1127     0.0000    24.0000 </r>
       <r>     9.1232     0.0000    24.0000 </r>
       <r>     9.1337     0.0000    24.0000 </r>
       <r>     9.1442     0.0000    24.0000 </r>
       <r>     9.1547     0.0000    24.0000 </r>
      </set>
     </set>
    </array>
   </total>
  </dos>
 </calculation>
 <structure name="finalpos" >
  <crystal>
   <varray name="basis" >
    <v>       1.58218970      -2.74043224       0.00000000 </v>
    <v>       1.58218970       2.74043224       0.00000000 </v>
    <v>       0.00000000       0.00000000      34.96267827 </v>
   </varray>
   <i name="volume">    303.18821061 </i>
   <varray name="rec_basis" >
    <v>       0.31601773      -0.18245297       0.00000000 </v>
    <v>       0.31601773       0.18245297       0.00000000 </v>
    <v>       0.00000000       0.00000000       0.02860193 </v>
   </varray>
  </crystal>
  <varray name="positions" >
   <v>       0.66666700       0.33333300       0.10664700 </v>
   <v>       0.33333300       0.66666700       0.06198962 </v>
   <v>       0.33333300       0.66666700       0.15130538 </v>
  </varray>
 </structure>
</modeling>
