    3    3    1    1
  0.1051873E+03  0.3228306E-09  0.3228306E-09  0.3496268E-08  0.5000000E-15
  1.000000000000000E-004
  CAR 
 MoS2 SOC SCF (high-res, 24x24x1)        
     24    576     40
 
  0.0000000E+00  0.0000000E+00  0.0000000E+00  0.1736111E-02
    1      -42.092630   1.000000
    2      -42.092607   1.000000
    3      -39.714646   1.000000
    4      -39.714615   1.000000
    5      -39.600951   1.000000
    6      -39.600907   1.000000
    7      -19.426721   1.000000
    8      -19.426683   1.000000
    9      -18.143427   1.000000
   10      -18.143377   1.000000
   11      -10.957819   1.000000
   12      -10.957812   1.000000
   13       -8.143773   1.000000
   14       -8.143758   1.000000
   15       -8.082593   1.000000
   16       -8.082579   1.000000
   17       -7.125715   1.000000
   18       -7.125654   1.000000
   19       -7.074190   1.000000
   20       -7.074181   1.000000
   21       -6.991150   1.000000
   22       -6.991142   1.000000
   23       -5.394582   1.000000
   24       -5.394581   1.000000
   25       -2.878020   0.000000
   26       -2.878017   0.000000
   27       -2.800170   0.000000
   28       -2.800167   0.000000
   29       -2.595642   0.000000
   30       -2.595635   0.000000
   31       -2.592250   0.000000
   32       -2.592245   0.000000
   33        0.210651   0.000000
   34        0.210687   0.000000
   35        0.751984   0.000000
   36        0.752023   0.000000
   37        1.742885   0.000000
   38        1.750837   0.000000
   39        2.295774   0.000000
   40        2.944415   0.000000
 
  0.4166667E-01  0.3469447E-17  0.0000000E+00  0.1736111E-02
    1      -42.094125   1.000000
    2      -42.094096   1.000000
    3      -39.715215   1.000000
    4      -39.715193   1.000000
    5      -39.604656   1.000000
    6      -39.604613   1.000000
    7      -19.402391   1.000000
    8      -19.402252   1.000000
    9      -18.133540   1.000000
   10      -18.133308   1.000000
   11      -10.929364   1.000000
   12      -10.929294   1.000000
   13       -8.180096   1.000000
   14       -8.180056   1.000000
   15       -8.077839   1.000000
   16       -8.077774   1.000000
   17       -7.371088   1.000000
   18       -7.370452   1.000000
   19       -7.074411   1.000000
   20       -7.074073   1.000000
   21       -6.822232   1.000000
   22       -6.821499   1.000000
   23       -5.409771   1.000000
   24       -5.409409   1.000000
   25       -2.893553   0.000000
   26       -2.892290   0.000000
   27       -2.784313   0.000000
   28       -2.783250   0.000000
   29       -2.660506   0.000000
   30       -2.659555   0.000000
   31       -2.621018   0.000000
   32       -2.620367   0.000000
   33        0.277230   0.000000
   34        0.279548   0.000000
   35        0.839596   0.000000
   36        0.841801   0.000000
   37        1.777123   0.000000
   38        1.778050   0.000000
   39        2.330258   0.000000
   40        2.444912   0.000000
 
  0.8333333E-01  0.6938894E-17  0.0000000E+00  0.1736111E-02
    1      -42.098531   1.000000
    2      -42.098495   1.000000
    3      -39.717094   1.000000
    4      -39.717080   1.000000
    5      -39.615269   1.000000
    6      -39.615226   1.000000
    7      -19.330298   1.000000
    8      -19.329993   1.000000
    9      -18.104097   1.000000
   10      -18.103676   1.000000
   11      -10.846696   1.000000
   12      -10.846556   1.000000
   13       -8.332949   1.000000
   14       -8.332807   1.000000
   15       -8.010364   1.000000
   16       -8.010150   1.000000
   17       -7.671598   1.000000
   18       -7.671078   1.000000
   19       -7.186664   1.000000
   20       -7.186316   1.000000
   21       -6.636973   1.000000
   22       -6.635985   1.000000
   23       -5.460571   1.000000
   24       -5.459848   1.000000
   25       -2.973331   0.000000
   26       -2.969681   0.000000
   27       -2.839467   0.000000
   28       -2.835391   0.000000
   29       -2.716276   0.000000
   30       -2.713024   0.000000
   31       -2.649000   0.000000
   32       -2.645341   0.000000
   33        0.435347   0.000000
   34        0.438919   0.000000
   35        1.111786   0.000000
   36        1.115481   0.000000
   37        1.880186   0.000000
   38        1.880400   0.000000
   39        2.431095   0.000000
   40        2.459235   0.000000
 
  0.1250000E+00  0.6938894E-17  0.0000000E+00  0.1736111E-02
    1      -42.105611   1.000000
    2      -42.105569   1.000000
    3      -39.720869   1.000000
    4      -39.720861   1.000000
    5      -39.631189   1.000000
    6      -39.631146   1.000000
    7      -19.213345   1.000000
    8      -19.212871   1.000000
    9      -18.056297   1.000000
   10      -18.055690   1.000000
   11      -10.719031   1.000000
   12      -10.718830   1.000000
   13       -8.565680   1.000000
   14       -8.565374   1.000000
   15       -7.990073   1.000000
   16       -7.989174   1.000000
   17       -7.884907   1.000000
   18       -7.884827   1.000000
   19       -7.353809   1.000000
   20       -7.353263   1.000000
   21       -6.536255   1.000000
   22       -6.535142   1.000000
   23       -5.560810   1.000000
   24       -5.559808   1.000000
   25       -3.070955   0.000000
   26       -3.063037   0.000000
   27       -3.008186   0.000000
   28       -3.000409   0.000000
   29       -2.824280   0.000000
   30       -2.823207   0.000000
   31       -2.479683   0.000000
   32       -2.478556   0.000000
   33        0.632714   0.000000
   34        0.636224   0.000000
   35        1.528864   0.000000
   36        1.533140   0.000000
   37        2.055328   0.000000
   38        2.055226   0.000000
   39        2.603352   0.000000
   40        2.642757   0.000000
 
  0.1666667E+00 -0.1387779E-16  0.0000000E+00  0.1736111E-02
    1      -42.114969   1.000000
    2      -42.114922   1.000000
    3      -39.727874   1.000000
    4      -39.727867   1.000000
    5      -39.649517   1.000000
    6      -39.649477   1.000000
    7      -19.056428   1.000000
    8      -19.055781   1.000000
    9      -17.992207   1.000000
   10      -17.991417   1.000000
   11      -10.565559   1.000000
   12      -10.565313   1.000000
   13       -8.834336   1.000000
   14       -8.833784   1.000000
   15       -8.304304   1.000000
   16       -8.303482   1.000000
   17       -7.730718   1.000000
   18       -7.729310   1.000000
   19       -7.551124   1.000000
   20       -7.549463   1.000000
   21       -6.536888   1.000000
   22       -6.535810   1.000000
   23       -5.721487   1.000000
   24       -5.720412   1.000000
   25       -3.217261   0.000000
   26       -3.215345   0.000000
   27       -3.009168   0.000000
   28       -3.007524   0.000000
   29       -2.954430   0.000000
   30       -2.953847   0.000000
   31       -2.271638   0.000000
   32       -2.270931   0.000000
   33        0.862356   0.000000
   34        0.865343   0.000000
   35        1.962598   0.000000
   36        1.966745   0.000000
   37        2.306951   0.000000
   38        2.308863   0.000000
   39        3.050998   0.000000
   40        3.056379   0.000000
 
  0.2083333E+00  0.0000000E+00  0.0000000E+00  0.1736111E-02
    1      -42.126057   1.000000
    2      -42.126007   1.000000
    3      -39.740250   1.000000
    4      -39.740239   1.000000
    5      -39.666174   1.000000
    6      -39.666139   1.000000
    7      -18.866526   1.000000
    8      -18.865705   1.000000
    9      -17.914831   1.000000
   10      -17.913863   1.000000
   11      -10.423503   1.000000
   12      -10.423236   1.000000
   13       -9.090171   1.000000
   14       -9.089229   1.000000
   15       -8.623781   1.000000
   16       -8.622667   1.000000
   17       -7.764390   1.000000
   18       -7.763090   1.000000
   19       -7.536994   1.000000
   20       -7.535457   1.000000
   21       -6.624428   1.000000
   22       -6.623543   1.000000
   23       -5.932631   1.000000
   24       -5.931690   1.000000
   25       -3.310042   0.000000
   26       -3.309196   0.000000
   27       -3.102351   0.000000
   28       -3.101614   0.000000
   29       -2.878522   0.000000
   30       -2.878381   0.000000
   31       -2.058978   0.000000
   32       -2.058433   0.000000
   33        1.125695   0.000000
   34        1.128172   0.000000
   35        2.290300   0.000000
   36        2.294409   0.000000
   37        2.737935   0.000000
   38        2.751899   0.000000
   39        3.303989   0.000000
   40        3.309623   0.000000
 
  0.2500000E+00  0.1387779E-16  0.0000000E+00  0.1736111E-02
    1      -42.138187   1.000000
    2      -42.138136   1.000000
    3      -39.759128   1.000000
    4      -39.759113   1.000000
    5      -39.677899   1.000000
    6      -39.677871   1.000000
    7      -18.652855   1.000000
    8      -18.651859   1.000000
    9      -17.828208   1.000000
   10      -17.827070   1.000000
   11      -10.357328   1.000000
   12      -10.357096   1.000000
   13       -9.272574   1.000000
   14       -9.270786   1.000000
   15       -8.940451   1.000000
   16       -8.938512   1.000000
   17       -7.966560   1.000000
   18       -7.966114   1.000000
   19       -7.331904   1.000000
   20       -7.331208   1.000000
   21       -6.760768   1.000000
   22       -6.760158   1.000000
   23       -6.153848   1.000000
   24       -6.153126   1.000000
   25       -3.332834   0.000000
   26       -3.332204   0.000000
   27       -3.220047   0.000000
   28       -3.219463   0.000000
   29       -2.677125   0.000000
   30       -2.677074   0.000000
   31       -1.861630   0.000000
   32       -1.861166   0.000000
   33        1.415547   0.000000
   34        1.417594   0.000000
   35        2.502988   0.000000
   36        2.508382   0.000000
   37        3.000685   0.000000
   38        3.136545   0.000000
   39        3.287490   0.000000
   40        3.346425   0.000000
 
  0.2916667E+00  0.0000000E+00  0.0000000E+00  0.1736111E-02
    1      -42.150550   1.000000
    2      -42.150501   1.000000
    3      -39.782314   1.000000
    4      -39.782295   1.000000
    5      -39.684740   1.000000
    6      -39.684718   1.000000
    7      -18.427123   1.000000
    8      -18.425959   1.000000
    9      -17.737447   1.000000
   10      -17.736150   1.000000
   11      -10.423672   1.000000
   12      -10.423570   1.000000
   13       -9.346708   1.000000
   14       -9.339824   1.000000
   15       -9.245021   1.000000
   16       -9.237906   1.000000
   17       -8.153192   1.000000
   18       -8.152942   1.000000
   19       -7.127868   1.000000
   20       -7.127273   1.000000
   21       -6.904643   1.000000
   22       -6.904377   1.000000
   23       -6.326013   1.000000
   24       -6.325501   1.000000
   25       -3.348006   0.000000
   26       -3.347906   0.000000
   27       -3.259906   0.000000
   28       -3.259637   0.000000
   29       -2.432509   0.000000
   30       -2.432459   0.000000
   31       -1.691866   0.000000
   32       -1.691453   0.000000
   33        1.710650   0.000000
   34        1.712111   0.000000
   35        2.573954   0.000000
   36        2.585762   0.000000
   37        3.007514   0.000000
   38        3.110559   0.000000
   39        3.460726   0.000000
   40        3.506429   0.000000
 
  0.3333333E+00  0.2775558E-16  0.0000000E+00  0.1736111E-02
    1      -42.162285   1.000000
    2      -42.162237   1.000000
    3      -39.806040   1.000000
    4      -39.806018   1.000000
    5      -39.688490   1.000000
    6      -39.688470   1.000000
    7      -18.203745   1.000000
    8      -18.202435   1.000000
    9      -17.648697   1.000000
   10      -17.647269   1.000000
   11      -10.589441   1.000000
   12      -10.589383   1.000000
   13       -9.530675   1.000000
   14       -9.527005   1.000000
   15       -9.346573   1.000000
   16       -9.342573   1.000000
   17       -8.314855   1.000000
   18       -8.314699   1.000000
   19       -7.055450   1.000000
   20       -7.054923   1.000000
   21       -6.916866   1.000000
   22       -6.916825   1.000000
   23       -6.397805   1.000000
   24       -6.397444   1.000000
   25       -3.401116   0.000000
   26       -3.400793   0.000000
   27       -3.191816   0.000000
   28       -3.191173   0.000000
   29       -2.184884   0.000000
   30       -2.184650   0.000000
   31       -1.555403   0.000000
   32       -1.555034   0.000000
   33        1.926997   0.000000
   34        1.927566   0.000000
   35        2.308474   0.000000
   36        2.313427   0.000000
   37        2.708951   0.000000
   38        2.718497   0.000000
   39        3.532964   0.000000
   40        3.544848   0.000000
 
  0.3750000E+00 -0.2775558E-16  0.0000000E+00  0.1736111E-02
    1      -42.172525   1.000000
    2      -42.172481   1.000000
    3      -39.827198   1.000000
    4      -39.827196   1.000000
    5      -39.690529   1.000000
    6      -39.690510   1.000000
    7      -17.999814   1.000000
    8      -17.998429   1.000000
    9      -17.568864   1.000000
   10      -17.567378   1.000000
   11      -10.779749   1.000000
   12      -10.779593   1.000000
   13       -9.768957   1.000000
   14       -9.767656   1.000000
   15       -9.366276   1.000000
   16       -9.364619   1.000000
   17       -8.445598   1.000000
   18       -8.445501   1.000000
   19       -7.153241   1.000000
   20       -7.153019   1.000000
   21       -6.761250   1.000000
   22       -6.761099   1.000000
   23       -6.357722   1.000000
   24       -6.357445   1.000000
   25       -3.429720   0.000000
   26       -3.429440   0.000000
   27       -3.097562   0.000000
   28       -3.096861   0.000000
   29       -1.967471   0.000000
   30       -1.967075   0.000000
   31       -1.453103   0.000000
   32       -1.452788   0.000000
   33        1.601134   0.000000
   34        1.603011   0.000000
   35        2.317539   0.000000
   36        2.372533   0.000000
   37        2.603413   0.000000
   38        2.608883   0.000000
   39        3.501339   0.000000
   40        4.408009   0.000000
 
  0.4166667E+00  0.5551115E-16  0.0000000E+00  0.1736111E-02
    1      -42.180483   1.000000
    2      -42.180444   1.000000
    3      -39.843692   1.000000
    4      -39.843663   1.000000
    5      -39.691613   1.000000
    6      -39.691595   1.000000
    7      -17.834205   1.000000
    8      -17.832925   1.000000
    9      -17.505024   1.000000
   10      -17.503655   1.000000
   11      -10.944743   1.000000
   12      -10.944562   1.000000
   13       -9.953808   1.000000
   14       -9.953193   1.000000
   15       -9.409197   1.000000
   16       -9.408291   1.000000
   17       -8.541462   1.000000
   18       -8.541407   1.000000
   19       -7.226258   1.000000
   20       -7.226138   1.000000
   21       -6.639657   1.000000
   22       -6.639540   1.000000
   23       -6.247549   1.000000
   24       -6.247334   1.000000
   25       -3.434344   0.000000
   26       -3.434154   0.000000
   27       -3.003660   0.000000
   28       -3.003053   0.000000
   29       -1.803550   0.000000
   30       -1.803106   0.000000
   31       -1.383040   0.000000
   32       -1.382799   0.000000
   33        1.115269   0.000000
   34        1.115396   0.000000
   35        2.421572   0.000000
   36        2.440754   0.000000
   37        2.675620   0.000000
   38        2.683969   0.000000
   39        4.193858   0.000000
   40        4.337992   0.000000
 
  0.4583333E+00  0.2775558E-16  0.0000000E+00  0.1736111E-02
    1      -42.185529   1.000000
    2      -42.185497   1.000000
    3      -39.854107   1.000000
    4      -39.854071   1.000000
    5      -39.692136   1.000000
    6      -39.692119   1.000000
    7      -17.725232   1.000000
    8      -17.724411   1.000000
    9      -17.463494   1.000000
   10      -17.462594   1.000000
   11      -11.055283   1.000000
   12      -11.055164   1.000000
   13      -10.070665   1.000000
   14      -10.070405   1.000000
   15       -9.451199   1.000000
   16       -9.450785   1.000000
   17       -8.599919   1.000000
   18       -8.599897   1.000000
   19       -7.269427   1.000000
   20       -7.269356   1.000000
   21       -6.564426   1.000000
   22       -6.564373   1.000000
   23       -6.138324   1.000000
   24       -6.138197   1.000000
   25       -3.428015   0.000000
   26       -3.427933   0.000000
   27       -2.931611   0.000000
   28       -2.931259   0.000000
   29       -1.704228   0.000000
   30       -1.703917   0.000000
   31       -1.342439   0.000000
   32       -1.342301   0.000000
   33        0.765201   0.000000
   34        0.765249   0.000000
   35        2.442587   0.000000
   36        2.715366   0.000000
   37        2.729640   0.000000
   38        3.230768   0.000000
   39        5.004234   0.000000
   40        5.376532   0.000000
 
  0.5000000E+00  0.2775558E-16  0.0000000E+00  0.1736111E-02
    1      -42.187258   1.000000
    2      -42.187232   1.000000
    3      -39.857671   1.000000
    4      -39.857625   1.000000
    5      -39.692293   1.000000
    6      -39.692275   1.000000
    7      -17.686841   1.000000
    8      -17.686794   1.000000
    9      -17.448756   1.000000
   10      -17.448707   1.000000
   11      -11.094091   1.000000
   12      -11.094083   1.000000
   13      -10.110583   1.000000
   14      -10.110563   1.000000
   15       -9.468077   1.000000
   16       -9.468064   1.000000
   17       -8.619558   1.000000
   18       -8.619550   1.000000
   19       -7.283620   1.000000
   20       -7.283578   1.000000
   21       -6.539132   1.000000
   22       -6.539097   1.000000
   23       -6.093408   1.000000
   24       -6.093394   1.000000
   25       -3.424067   0.000000
   26       -3.424000   0.000000
   27       -2.903810   0.000000
   28       -2.903772   0.000000
   29       -1.671224   0.000000
   30       -1.671210   0.000000
   31       -1.329133   0.000000
   32       -1.329116   0.000000
   33        0.637564   0.000000
   34        0.637576   0.000000
   35        2.449337   0.000000
   36        2.770528   0.000000
   37        2.778369   0.000000
   38        3.491434   0.000000
   39        4.852084   0.000000
   40        5.913593   0.000000
 
 -0.4583333E+00 -0.2775558E-16  0.0000000E+00  0.1736111E-02
    1      -42.185523   1.000000
    2      -42.185502   1.000000
    3      -39.854117   1.000000
    4      -39.854061   1.000000
    5      -39.692137   1.000000
    6      -39.692118   1.000000
    7      -17.725269   1.000000
    8      -17.724374   1.000000
    9      -17.463456   1.000000
   10      -17.462632   1.000000
   11      -11.055277   1.000000
   12      -11.055170   1.000000
   13      -10.070650   1.000000
   14      -10.070420   1.000000
   15       -9.451210   1.000000
   16       -9.450774   1.000000
   17       -8.599926   1.000000
   18       -8.599891   1.000000
   19       -7.269404   1.000000
   20       -7.269378   1.000000
   21       -6.564452   1.000000
   22       -6.564348   1.000000
   23       -6.138312   1.000000
   24       -6.138210   1.000000
   25       -3.428062   0.000000
   26       -3.427886   0.000000
   27       -2.931639   0.000000
   28       -2.931230   0.000000
   29       -1.704215   0.000000
   30       -1.703929   0.000000
   31       -1.342426   0.000000
   32       -1.342315   0.000000
   33        0.765227   0.000000
   34        0.765223   0.000000
   35        2.513744   0.000000
   36        2.632832   0.000000
   37        2.757235   0.000000
   38        3.093977   0.000000
   39        4.946782   0.000000
   40        5.397393   0.000000
 
 -0.4166667E+00 -0.5551115E-16  0.0000000E+00  0.1736111E-02
    1      -42.180472   1.000000
    2      -42.180456   1.000000
    3      -39.843698   1.000000
    4      -39.843657   1.000000
    5      -39.691614   1.000000
    6      -39.691594   1.000000
    7      -17.834242   1.000000
    8      -17.832888   1.000000
    9      -17.504986   1.000000
   10      -17.503694   1.000000
   11      -10.944738   1.000000
   12      -10.944567   1.000000
   13       -9.953793   1.000000
   14       -9.953207   1.000000
   15       -9.409210   1.000000
   16       -9.408277   1.000000
   17       -8.541469   1.000000
   18       -8.541400   1.000000
   19       -7.226225   1.000000
   20       -7.226171   1.000000
   21       -6.639679   1.000000
   22       -6.639518   1.000000
   23       -6.247532   1.000000
   24       -6.247351   1.000000
   25       -3.434389   0.000000
   26       -3.434109   0.000000
   27       -3.003683   0.000000
   28       -3.003029   0.000000
   29       -1.803536   0.000000
   30       -1.803120   0.000000
   31       -1.383026   0.000000
   32       -1.382813   0.000000
   33        1.115386   0.000000
   34        1.115286   0.000000
   35        2.425200   0.000000
   36        2.448549   0.000000
   37        2.604887   0.000000
   38        2.643142   0.000000
   39        3.780274   0.000000
   40        4.537255   0.000000
 
 -0.3750000E+00  0.2775558E-16  0.0000000E+00  0.1736111E-02
    1      -42.172512   1.000000
    2      -42.172494   1.000000
    3      -39.827237   1.000000
    4      -39.827157   1.000000
    5      -39.690532   1.000000
    6      -39.690508   1.000000
    7      -17.999850   1.000000
    8      -17.998393   1.000000
    9      -17.568825   1.000000
   10      -17.567416   1.000000
   11      -10.779749   1.000000
   12      -10.779593   1.000000
   13       -9.768944   1.000000
   14       -9.767670   1.000000
   15       -9.366292   1.000000
   16       -9.364603   1.000000
   17       -8.445605   1.000000
   18       -8.445494   1.000000
   19       -7.153205   1.000000
   20       -7.153055   1.000000
   21       -6.761266   1.000000
   22       -6.761083   1.000000
   23       -6.357702   1.000000
   24       -6.357466   1.000000
   25       -3.429758   0.000000
   26       -3.429402   0.000000
   27       -3.097581   0.000000
   28       -3.096843   0.000000
   29       -1.967455   0.000000
   30       -1.967090   0.000000
   31       -1.453090   0.000000
   32       -1.452801   0.000000
   33        1.601409   0.000000
   34        1.601408   0.000000
   35        2.317347   0.000000
   36        2.327490   0.000000
   37        2.603206   0.000000
   38        2.608901   0.000000
   39        3.635106   0.000000
   40        3.725356   0.000000
 
 -0.3333333E+00  0.2775558E-16  0.0000000E+00  0.1736111E-02
    1      -42.162271   1.000000
    2      -42.162251   1.000000
    3      -39.806076   1.000000
    4      -39.805982   1.000000
    5      -39.688496   1.000000
    6      -39.688465   1.000000
    7      -18.203779   1.000000
    8      -18.202400   1.000000
    9      -17.648658   1.000000
   10      -17.647308   1.000000
   11      -10.589439   1.000000
   12      -10.589385   1.000000
   13       -9.530663   1.000000
   14       -9.527017   1.000000
   15       -9.346590   1.000000
   16       -9.342556   1.000000
   17       -8.314862   1.000000
   18       -8.314692   1.000000
   19       -7.055415   1.000000
   20       -7.054958   1.000000
   21       -6.916871   1.000000
   22       -6.916820   1.000000
   23       -6.397783   1.000000
   24       -6.397466   1.000000
   25       -3.401144   0.000000
   26       -3.400765   0.000000
   27       -3.191830   0.000000
   28       -3.191160   0.000000
   29       -2.184867   0.000000
   30       -2.184667   0.000000
   31       -1.555390   0.000000
   32       -1.555047   0.000000
   33        1.926984   0.000000
   34        1.927581   0.000000
   35        2.308555   0.000000
   36        2.312953   0.000000
   37        2.710390   0.000000
   38        2.711079   0.000000
   39        3.402786   0.000000
   40        3.430963   0.000000
 
 -0.2916667E+00  0.0000000E+00  0.0000000E+00  0.1736111E-02
    1      -42.150536   1.000000
    2      -42.150515   1.000000
    3      -39.782358   1.000000
    4      -39.782251   1.000000
    5      -39.684749   1.000000
    6      -39.684710   1.000000
    7      -18.427157   1.000000
    8      -18.425925   1.000000
    9      -17.737408   1.000000
   10      -17.736189   1.000000
   11      -10.423675   1.000000
   12      -10.423567   1.000000
   13       -9.346697   1.000000
   14       -9.339835   1.000000
   15       -9.245032   1.000000
   16       -9.237895   1.000000
   17       -8.153200   1.000000
   18       -8.152935   1.000000
   19       -7.127870   1.000000
   20       -7.127272   1.000000
   21       -6.904599   1.000000
   22       -6.904421   1.000000
   23       -6.325992   1.000000
   24       -6.325521   1.000000
   25       -3.348020   0.000000
   26       -3.347893   0.000000
   27       -3.259907   0.000000
   28       -3.259636   0.000000
   29       -2.432489   0.000000
   30       -2.432479   0.000000
   31       -1.691854   0.000000
   32       -1.691465   0.000000
   33        1.710625   0.000000
   34        1.712177   0.000000
   35        2.579556   0.000000
   36        2.586207   0.000000
   37        2.951136   0.000000
   38        3.191357   0.000000
   39        3.322571   0.000000
   40        3.595972   0.000000
 
 -0.2500000E+00 -0.1387779E-16  0.0000000E+00  0.1736111E-02
    1      -42.138170   1.000000
    2      -42.138153   1.000000
    3      -39.759179   1.000000
    4      -39.759062   1.000000
    5      -39.677911   1.000000
    6      -39.677860   1.000000
    7      -18.652888   1.000000
    8      -18.651826   1.000000
    9      -17.828169   1.000000
   10      -17.827109   1.000000
   11      -10.357334   1.000000
   12      -10.357091   1.000000
   13       -9.272572   1.000000
   14       -9.270788   1.000000
   15       -8.940460   1.000000
   16       -8.938502   1.000000
   17       -7.966568   1.000000
   18       -7.966106   1.000000
   19       -7.331900   1.000000
   20       -7.331212   1.000000
   21       -6.760724   1.000000
   22       -6.760202   1.000000
   23       -6.153832   1.000000
   24       -6.153141   1.000000
   25       -3.332841   0.000000
   26       -3.332197   0.000000
   27       -3.220059   0.000000
   28       -3.219451   0.000000
   29       -2.677146   0.000000
   30       -2.677052   0.000000
   31       -1.861619   0.000000
   32       -1.861177   0.000000
   33        1.415515   0.000000
   34        1.417625   0.000000
   35        2.503252   0.000000
   36        2.508918   0.000000
   37        2.990765   0.000000
   38        3.063183   0.000000
   39        3.624811   0.000000
   40        3.661506   0.000000
 
 -0.2083333E+00  0.0000000E+00  0.0000000E+00  0.1736111E-02
    1      -42.126042   1.000000
    2      -42.126022   1.000000
    3      -39.740302   1.000000
    4      -39.740187   1.000000
    5      -39.666184   1.000000
    6      -39.666129   1.000000
    7      -18.866558   1.000000
    8      -18.865673   1.000000
    9      -17.914792   1.000000
   10      -17.913903   1.000000
   11      -10.423512   1.000000
   12      -10.423228   1.000000
   13       -9.090178   1.000000
   14       -9.089222   1.000000
   15       -8.623789   1.000000
   16       -8.622659   1.000000
   17       -7.764399   1.000000
   18       -7.763082   1.000000
   19       -7.536985   1.000000
   20       -7.535467   1.000000
   21       -6.624383   1.000000
   22       -6.623588   1.000000
   23       -5.932621   1.000000
   24       -5.931699   1.000000
   25       -3.310048   0.000000
   26       -3.309190   0.000000
   27       -3.102358   0.000000
   28       -3.101608   0.000000
   29       -2.878500   0.000000
   30       -2.878403   0.000000
   31       -2.058968   0.000000
   32       -2.058442   0.000000
   33        1.125660   0.000000
   34        1.128206   0.000000
   35        2.290318   0.000000
   36        2.294389   0.000000
   37        2.705587   0.000000
   38        2.727272   0.000000
   39        3.339158   0.000000
   40        3.341517   0.000000
 
 -0.1666667E+00  0.1387779E-16  0.0000000E+00  0.1736111E-02
    1      -42.114955   1.000000
    2      -42.114936   1.000000
    3      -39.727920   1.000000
    4      -39.727821   1.000000
    5      -39.649522   1.000000
    6      -39.649472   1.000000
    7      -19.056459   1.000000
    8      -19.055750   1.000000
    9      -17.992168   1.000000
   10      -17.991457   1.000000
   11      -10.565568   1.000000
   12      -10.565304   1.000000
   13       -8.834349   1.000000
   14       -8.833772   1.000000
   15       -8.304313   1.000000
   16       -8.303474   1.000000
   17       -7.730732   1.000000
   18       -7.729297   1.000000
   19       -7.551115   1.000000
   20       -7.549472   1.000000
   21       -6.536845   1.000000
   22       -6.535854   1.000000
   23       -5.721482   1.000000
   24       -5.720417   1.000000
   25       -3.217265   0.000000
   26       -3.215342   0.000000
   27       -3.009151   0.000000
   28       -3.007541   0.000000
   29       -2.954428   0.000000
   30       -2.953849   0.000000
   31       -2.271629   0.000000
   32       -2.270939   0.000000
   33        0.862319   0.000000
   34        0.865380   0.000000
   35        1.962384   0.000000
   36        1.966501   0.000000
   37        2.306893   0.000000
   38        2.308638   0.000000
   39        3.024055   0.000000
   40        3.029556   0.000000
 
 -0.1250000E+00 -0.6938894E-17  0.0000000E+00  0.1736111E-02
    1      -42.105598   1.000000
    2      -42.105581   1.000000
    3      -39.720904   1.000000
    4      -39.720826   1.000000
    5      -39.631190   1.000000
    6      -39.631145   1.000000
    7      -19.213376   1.000000
    8      -19.212840   1.000000
    9      -18.056258   1.000000
   10      -18.055730   1.000000
   11      -10.719039   1.000000
   12      -10.718823   1.000000
   13       -8.565696   1.000000
   14       -8.565358   1.000000
   15       -7.990083   1.000000
   16       -7.989164   1.000000
   17       -7.884923   1.000000
   18       -7.884811   1.000000
   19       -7.353799   1.000000
   20       -7.353273   1.000000
   21       -6.536218   1.000000