       N       E                     dE             d eps       ncg     rms          ort
SDA:   1     0.972890673290E+02    0.97289E+02    0.00000E+00 23040   0.190E+03 0.000E+00
CGA:   2     0.262117692630E+02   -0.71077E+02   -0.77521E+02 23040   0.134E+03-0.238E+02
CGA:   3     0.193407302209E+01   -0.24278E+02   -0.24317E+02 23040   0.437E+02 0.362E+01
CGA:   4    -0.733964236565E+01   -0.92737E+01   -0.92823E+01 23040   0.277E+02 0.354E+00
CGA:   5    -0.148645023555E+02   -0.75249E+01   -0.74199E+01 23040   0.164E+02 0.119E+01
CGA:   6    -0.187754655131E+02   -0.39110E+01   -0.39058E+01 23040   0.715E+01-0.288E-01
CGA:   7    -0.204197774012E+02   -0.16443E+01   -0.16325E+01 23040   0.297E+01 0.403E+00
CGA:   8    -0.211355755439E+02   -0.71580E+00   -0.70680E+00 23040   0.101E+01 0.345E+00
CGA:   9    -0.215069888155E+02   -0.37141E+00   -0.36313E+00 23040   0.585E+00-0.190E+00
CGA:  10    -0.216156675974E+02   -0.10868E+00   -0.10869E+00 23040   0.244E+00 0.366E-03
CGA:  11    -0.216871969136E+02   -0.71529E-01   -0.71601E-01 23040   0.120E+00-0.421E-03
CGA:  12    -0.217170820475E+02   -0.29885E-01   -0.29889E-01 23040   0.493E-01 0.160E-03
CGA:  13    -0.217311292329E+02   -0.14047E-01   -0.14038E-01 23040   0.211E-01 0.192E-03
CGA:  14    -0.217371115220E+02   -0.59823E-02   -0.59766E-02 23040   0.914E-02 0.104E-03
CGA:  15    -0.217399065242E+02   -0.27950E-02   -0.27913E-02 23040   0.416E-02 0.443E-04
CGA:  16    -0.217412100654E+02   -0.13035E-02   -0.13020E-02 23040   0.185E-02 0.161E-04
CGA:  17    -0.217418059141E+02   -0.59585E-03   -0.59535E-03 23040   0.814E-03 0.459E-05
CGA:  18    -0.217420702378E+02   -0.26432E-03   -0.26423E-03 23040   0.337E-03 0.734E-06
CGA:  19    -0.217421828517E+02   -0.11261E-03   -0.11262E-03 23040   0.143E-03-0.874E-07
CGA:  20    -0.217422317525E+02   -0.48901E-04   -0.48912E-04 23040   0.614E-04-0.100E-06
CGA:  21    -0.217422536300E+02   -0.21877E-04   -0.21883E-04 23040   0.274E-04-0.344E-07
CGA:  22    -0.217422635690E+02   -0.99391E-05   -0.99413E-05 23040   0.119E-04-0.101E-07
CGA:  23    -0.217422678576E+02   -0.42886E-05   -0.42904E-05 23040   0.492E-05-0.940E-08
CGA:  24    -0.217422696518E+02   -0.17942E-05   -0.17962E-05 23040   0.206E-05-0.109E-07
CGA:  25    -0.217422704190E+02   -0.76722E-06   -0.76894E-06 23040   0.886E-06-0.746E-08
CGA:  26    -0.217422707578E+02   -0.33872E-06   -0.34019E-06 23040   0.390E-06-0.426E-08
CGA:  27    -0.217422709069E+02   -0.14911E-06   -0.15027E-06 23040   0.167E-06-0.286E-08
CGA:  28    -0.217422709711E+02   -0.64190E-07   -0.65458E-07 23040   0.719E-07-0.316E-08
   1 F= -.21742271E+02 E0= -.21742271E+02  d E =-.764165E-25  mag=     0.0000     0.0000     0.0000
