    3    3    1    1
  0.1031147E+03  0.3196342E-09  0.3196342E-09  0.3496268E-08  0.5000000E-15
  1.000000000000000E-004
  CAR 
 MoS2 SOC SCF (warm, 12x12x1)            
     24    144     40
 
  0.0000000E+00  0.0000000E+00  0.0000000E+00  0.6944444E-02
    1      -42.018435   1.000000
    2      -42.018412   1.000000
    3      -39.651717   1.000000
    4      -39.651685   1.000000
    5      -39.515665   1.000000
    6      -39.515621   1.000000
    7      -19.503944   1.000000
    8      -19.503906   1.000000
    9      -18.197876   1.000000
   10      -18.197825   1.000000
   11      -11.031188   1.000000
   12      -11.031194   1.000000
   13       -8.108866   1.000000
   14       -8.108850   1.000000
   15       -8.045876   1.000000
   16       -8.045862   1.000000
   17       -7.170241   1.000000
   18       -7.170179   1.000000
   19       -7.012627   1.000000
   20       -7.012619   1.000000
   21       -6.928735   1.000000
   22       -6.928726   1.000000
   23       -5.422891   1.000000
   24       -5.422894   1.000000
   25       -2.759843   0.000000
   26       -2.759840   0.000000
   27       -2.681359   0.000000
   28       -2.681356   0.000000
   29       -2.476144   0.000000
   30       -2.476136   0.000000
   31       -2.475429   0.000000
   32       -2.475423   0.000000
   33        0.289196   0.000000
   34        0.289243   0.000000
   35        0.886797   0.000000
   36        0.886833   0.000000
   37        1.768168   0.000000
   38        1.780748   0.000000
   39        2.333044   0.000000
   40        3.396440   0.000000
 
  0.8333333E-01  0.0000000E+00  0.0000000E+00  0.6944444E-02
    1      -42.024908   1.000000
    2      -42.024871   1.000000
    3      -39.654498   1.000000
    4      -39.654488   1.000000
    5      -39.531630   1.000000
    6      -39.531586   1.000000
    7      -19.402975   1.000000
    8      -19.402668   1.000000
    9      -18.156640   1.000000
   10      -18.156206   1.000000
   11      -10.915877   1.000000
   12      -10.915725   1.000000
   13       -8.303881   1.000000
   14       -8.303756   1.000000
   15       -7.970104   1.000000
   16       -7.969886   1.000000
   17       -7.684614   1.000000
   18       -7.684103   1.000000
   19       -7.131476   1.000000
   20       -7.131124   1.000000
   21       -6.612599   1.000000
   22       -6.611548   1.000000
   23       -5.481822   1.000000
   24       -5.481072   1.000000
   25       -2.860259   0.000000
   26       -2.856366   0.000000
   27       -2.739901   0.000000
   28       -2.735663   0.000000
   29       -2.601366   0.000000
   30       -2.598239   0.000000
   31       -2.527148   0.000000
   32       -2.523730   0.000000
   33        0.483816   0.000000
   34        0.486953   0.000000
   35        1.289043   0.000000
   36        1.292422   0.000000
   37        1.909794   0.000000
   38        1.977959   0.000000
   39        2.472660   0.000000
   40        2.998468   0.000000
 
  0.1666667E+00  0.1387779E-16  0.0000000E+00  0.6944444E-02
    1      -42.042996   1.000000
    2      -42.042948   1.000000
    3      -39.666132   1.000000
    4      -39.666142   1.000000
    5      -39.570247   1.000000
    6      -39.570206   1.000000
    7      -19.115944   1.000000
    8      -19.115272   1.000000
    9      -18.039222   1.000000
   10      -18.038399   1.000000
   11      -10.625063   1.000000
   12      -10.624798   1.000000
   13       -8.818721   1.000000
   14       -8.818150   1.000000
   15       -8.331714   1.000000
   16       -8.330871   1.000000
   17       -7.677804   1.000000
   18       -7.676298   1.000000
   19       -7.509143   1.000000
   20       -7.507389   1.000000
   21       -6.521080   1.000000
   22       -6.519898   1.000000
   23       -5.729167   1.000000
   24       -5.728024   1.000000
   25       -3.153629   0.000000
   26       -3.152171   0.000000
   27       -2.901181   0.000000
   28       -2.900031   0.000000
   29       -2.848364   0.000000
   30       -2.847780   0.000000
   31       -2.138391   0.000000
   32       -2.137710   0.000000
   33        0.899827   0.000000
   34        0.902381   0.000000
   35        2.117058   0.000000
   36        2.119997   0.000000
   37        2.367369   0.000000
   38        2.370406   0.000000
   39        2.945448   0.000000
   40        2.969976   0.000000
 
  0.2500000E+00  0.0000000E+00  0.0000000E+00  0.6944444E-02
    1      -42.068666   1.000000
    2      -42.068614   1.000000
    3      -39.698318   1.000000
    4      -39.698332   1.000000
    5      -39.604377   1.000000
    6      -39.604349   1.000000
    7      -18.691966   1.000000
    8      -18.690917   1.000000
    9      -17.866766   1.000000
   10      -17.865567   1.000000
   11      -10.412517   1.000000
   12      -10.412279   1.000000
   13       -9.265877   1.000000
   14       -9.263794   1.000000
   15       -8.984384   1.000000
   16       -8.982133   1.000000
   17       -7.938865   1.000000
   18       -7.938454   1.000000
   19       -7.262356   1.000000
   20       -7.261686   1.000000
   21       -6.761022   1.000000
   22       -6.760357   1.000000
   23       -6.160938   1.000000
   24       -6.160173   1.000000
   25       -3.279655   0.000000
   26       -3.279071   0.000000
   27       -3.121202   0.000000
   28       -3.120592   0.000000
   29       -2.562727   0.000000
   30       -2.562570   0.000000
   31       -1.723066   0.000000
   32       -1.722612   0.000000
   33        1.464468   0.000000
   34        1.466266   0.000000
   35        2.604739   0.000000
   36        2.610350   0.000000
   37        3.023147   0.000000
   38        3.148401   0.000000
   39        3.398349   0.000000
   40        3.745428   0.000000
 
  0.3333333E+00  0.0000000E+00  0.0000000E+00  0.6944444E-02
    1      -42.095456   1.000000
    2      -42.095407   1.000000
    3      -39.747900   1.000000
    4      -39.747894   1.000000
    5      -39.618496   1.000000
    6      -39.618476   1.000000
    7      -18.218003   1.000000
    8      -18.216584   1.000000
    9      -17.677409   1.000000
   10      -17.675868   1.000000
   11      -10.650979   1.000000
   12      -10.650919   1.000000
   13       -9.590477   1.000000
   14       -9.587588   1.000000
   15       -9.351325   1.000000
   16       -9.348088   1.000000
   17       -8.298454   1.000000
   18       -8.298308   1.000000
   19       -7.066046   1.000000
   20       -7.065609   1.000000
   21       -6.838952   1.000000
   22       -6.838857   1.000000
   23       -6.404771   1.000000
   24       -6.404447   1.000000
   25       -3.290936   0.000000
   26       -3.290666   0.000000
   27       -3.117926   0.000000
   28       -3.117354   0.000000
   29       -2.066300   0.000000
   30       -2.066124   0.000000
   31       -1.417916   0.000000
   32       -1.417549   0.000000
   33        2.013288   0.000000
   34        2.014191   0.000000
   35        2.411485   0.000000
   36        2.417481   0.000000
   37        2.754304   0.000000
   38        2.758880   0.000000
   39        3.342018   0.000000
   40        3.364763   0.000000
 
  0.4166667E+00 -0.2775558E-16  0.0000000E+00  0.6944444E-02
    1      -42.115772   1.000000
    2      -42.115733   1.000000
    3      -39.788532   1.000000
    4      -39.788506   1.000000
    5      -39.622867   1.000000
    6      -39.622847   1.000000
    7      -17.825481   1.000000
    8      -17.823999   1.000000
    9      -17.525310   1.000000
   10      -17.523737   1.000000
   11      -11.018837   1.000000
   12      -11.018647   1.000000
   13      -10.027705   1.000000
   14      -10.027119   1.000000
   15       -9.435319   1.000000
   16       -9.434430   1.000000
   17       -8.532112   1.000000
   18       -8.532061   1.000000
   19       -7.250243   1.000000
   20       -7.250144   1.000000
   21       -6.552439   1.000000
   22       -6.552375   1.000000
   23       -6.240327   1.000000
   24       -6.240150   1.000000
   25       -3.304278   0.000000
   26       -3.304152   0.000000
   27       -2.886517   0.000000
   28       -2.885904   0.000000
   29       -1.689602   0.000000
   30       -1.689149   0.000000
   31       -1.249187   0.000000
   32       -1.248944   0.000000
   33        1.222490   0.000000
   34        1.222635   0.000000
   35        2.457745   0.000000
   36        2.472039   0.000000
   37        2.699040   0.000000
   38        2.710952   0.000000
   39        3.663764   0.000000
   40        3.776316   0.000000
 
  0.5000000E+00  0.0000000E+00  0.0000000E+00  0.6944444E-02
    1      -42.123355   1.000000
    2      -42.123328   1.000000
    3      -39.803698   1.000000
    4      -39.803651   1.000000
    5      -39.623843   1.000000
    6      -39.623824   1.000000
    7      -17.668007   1.000000
    8      -17.667959   1.000000
    9      -17.465475   1.000000
   10      -17.465425   1.000000
   11      -11.175012   1.000000
   12      -11.175003   1.000000
   13      -10.189726   1.000000
   14      -10.189705   1.000000
   15       -9.504330   1.000000
   16       -9.504319   1.000000
   17       -8.612603   1.000000
   18       -8.612595   1.000000
   19       -7.310569   1.000000
   20       -7.310524   1.000000
   21       -6.450840   1.000000
   22       -6.450804   1.000000
   23       -6.079537   1.000000
   24       -6.079525   1.000000
   25       -3.283484   0.000000
   26       -3.283416   0.000000
   27       -2.757192   0.000000
   28       -2.757154   0.000000
   29       -1.562456   0.000000
   30       -1.562442   0.000000
   31       -1.197072   0.000000
   32       -1.197056   0.000000
   33        0.719548   0.000000
   34        0.719560   0.000000
   35        2.498715   0.000000
   36        2.498729   0.000000
   37        2.886485   0.000000
   38        2.886488   0.000000
   39        3.730072   0.000000
   40        4.474935   0.000000
 
 -0.4166667E+00  0.2775558E-16  0.0000000E+00  0.6944444E-02
    1      -42.115761   1.000000
    2      -42.115744   1.000000
    3      -39.788555   1.000000
    4      -39.788483   1.000000
    5      -39.622869   1.000000
    6      -39.622845   1.000000
    7      -17.825518   1.000000
    8      -17.823961   1.000000
    9      -17.525270   1.000000
   10      -17.523777   1.000000
   11      -11.018832   1.000000
   12      -11.018652   1.000000
   13      -10.027690   1.000000
   14      -10.027134   1.000000
   15       -9.435332   1.000000
   16       -9.434417   1.000000
   17       -8.532118   1.000000
   18       -8.532054   1.000000
   19       -7.250199   1.000000
   20       -7.250187   1.000000
   21       -6.552481   1.000000
   22       -6.552333   1.000000
   23       -6.240291   1.000000
   24       -6.240186   1.000000
   25       -3.304352   0.000000
   26       -3.304078   0.000000
   27       -2.886541   0.000000
   28       -2.885879   0.000000
   29       -1.689588   0.000000
   30       -1.689162   0.000000
   31       -1.249174   0.000000
   32       -1.248956   0.000000
   33        1.222504   0.000000
   34        1.222621   0.000000
   35        2.457740   0.000000
   36        2.472045   0.000000
   37        2.699038   0.000000
   38        2.710956   0.000000
   39        3.647662   0.000000
   40        3.997510   0.000000
 
 -0.3333333E+00  0.0000000E+00  0.0000000E+00  0.6944444E-02
    1      -42.095437   1.000000
    2      -42.095425   1.000000
    3      -39.747947   1.000000
    4      -39.747846   1.000000
    5      -39.618504   1.000000
    6      -39.618468   1.000000
    7      -18.218039   1.000000
    8      -18.216549   1.000000
    9      -17.677369   1.000000
   10      -17.675908   1.000000
   11      -10.650978   1.000000
   12      -10.650920   1.000000
   13       -9.590464   1.000000
   14       -9.587601   1.000000
   15       -9.351341   1.000000
   16       -9.348071   1.000000
   17       -8.298461   1.000000
   18       -8.298301   1.000000
   19       -7.066003   1.000000
   20       -7.065653   1.000000
   21       -6.838962   1.000000
   22       -6.838846   1.000000
   23       -6.404743   1.000000
   24       -6.404475   1.000000
   25       -3.290968   0.000000
   26       -3.290634   0.000000
   27       -3.117939   0.000000
   28       -3.117341   0.000000
   29       -2.066278   0.000000
   30       -2.066147   0.000000
   31       -1.417904   0.000000
   32       -1.417561   0.000000
   33        2.013243   0.000000
   34        2.014236   0.000000
   35        2.411489   0.000000
   36        2.417476   0.000000
   37        2.754301   0.000000
   38        2.758884   0.000000
   39        3.341984   0.000000
   40        3.364796   0.000000
 
 -0.2500000E+00  0.0000000E+00  0.0000000E+00  0.6944444E-02
    1      -42.068645   1.000000
    2      -42.068634   1.000000
    3      -39.698387   1.000000
    4      -39.698262   1.000000
    5      -39.604390   1.000000
    6      -39.604336   1.000000
    7      -18.691999   1.000000
    8      -18.690883   1.000000
    9      -17.866725   1.000000
   10      -17.865607   1.000000
   11      -10.412523   1.000000
   12      -10.412274   1.000000
   13       -9.265875   1.000000
   14       -9.263796   1.000000
   15       -8.984394   1.000000
   16       -8.982124   1.000000
   17       -7.938873   1.000000
   18       -7.938445   1.000000
   19       -7.262352   1.000000
   20       -7.261691   1.000000
   21       -6.760974   1.000000
   22       -6.760405   1.000000
   23       -6.160923   1.000000
   24       -6.160187   1.000000
   25       -3.279663   0.000000
   26       -3.279063   0.000000
   27       -3.121214   0.000000
   28       -3.120580   0.000000
   29       -2.562754   0.000000
   30       -2.562543   0.000000
   31       -1.723056   0.000000
   32       -1.722622   0.000000
   33        1.464399   0.000000
   34        1.466335   0.000000
   35        2.604819   0.000000
   36        2.610308   0.000000
   37        3.043705   0.000000
   38        3.139090   0.000000
   39        3.432033   0.000000
   40        3.866727   0.000000
 
 -0.1666667E+00 -0.1387779E-16  0.0000000E+00  0.6944444E-02
    1      -42.042977   1.000000
    2      -42.042967   1.000000
    3      -39.666188   1.000000
    4      -39.666086   1.000000
    5      -39.570252   1.000000
    6      -39.570201   1.000000
    7      -19.115976   1.000000
    8      -19.115240   1.000000
    9      -18.039180   1.000000
   10      -18.038440   1.000000
   11      -10.625071   1.000000
   12      -10.624790   1.000000
   13       -8.818735   1.000000
   14       -8.818136   1.000000
   15       -8.331723   1.000000
   16       -8.330862   1.000000
   17       -7.677819   1.000000
   18       -7.676283   1.000000
   19       -7.509134   1.000000
   20       -7.507398   1.000000
   21       -6.521035   1.000000
   22       -6.519943   1.000000
   23       -5.729163   1.000000
   24       -5.728027   1.000000
   25       -3.153632   0.000000
   26       -3.152168   0.000000
   27       -2.901164   0.000000
   28       -2.900047   0.000000
   29       -2.848361   0.000000
   30       -2.847783   0.000000
   31       -2.138384   0.000000
   32       -2.137718   0.000000
   33        0.899765   0.000000
   34        0.902444   0.000000
   35        2.117114   0.000000
   36        2.119953   0.000000
   37        2.367489   0.000000
   38        2.371668   0.000000
   39        2.950408   0.000000
   40        3.061026   0.000000
 
 -0.8333333E-01  0.0000000E+00  0.0000000E+00  0.6944444E-02
    1      -42.024896   1.000000
    2      -42.024883   1.000000
    3      -39.654524   1.000000
    4      -39.654463   1.000000
    5      -39.531630   1.000000
    6      -39.531586   1.000000
    7      -19.403010   1.000000
    8      -19.402634   1.000000
    9      -18.156595   1.000000
   10      -18.156251   1.000000
   11      -10.915883   1.000000
   12      -10.915719   1.000000
   13       -8.303905   1.000000
   14       -8.303732   1.000000
   15       -7.970125   1.000000
   16       -7.969865   1.000000
   17       -7.684630   1.000000
   18       -7.684087   1.000000
   19       -7.131465   1.000000
   20       -7.131136   1.000000
   21       -6.612571   1.000000
   22       -6.611576   1.000000
   23       -5.481824   1.000000
   24       -5.481070   1.000000
   25       -2.860268   0.000000
   26       -2.856356   0.000000
   27       -2.739905   0.000000
   28       -2.735660   0.000000
   29       -2.601361   0.000000
   30       -2.598244   0.000000
   31       -2.527144   0.000000
   32       -2.523733   0.000000
   33        0.483762   0.000000
   34        0.487007   0.000000
   35        1.289066   0.000000
   36        1.292398   0.000000
   37        1.910047   0.000000
   38        1.928457   0.000000
   39        2.472785   0.000000
   40        2.765860   0.000000
 
  0.0000000E+00  0.8333333E-01  0.0000000E+00  0.6944444E-02
    1      -42.024904   1.000000
    2      -42.024875   1.000000
    3      -39.654507   1.000000
    4      -39.654479   1.000000
    5      -39.531630   1.000000
    6      -39.531586   1.000000
    7      -19.402985   1.000000
    8      -19.402658   1.000000
    9      -18.156622   1.000000
   10      -18.156224   1.000000
   11      -10.915880   1.000000
   12      -10.915723   1.000000
   13       -8.303889   1.000000
   14       -8.303748   1.000000
   15       -7.970111   1.000000
   16       -7.969879   1.000000
   17       -7.684619   1.000000
   18       -7.684098   1.000000
   19       -7.131472   1.000000
   20       -7.131128   1.000000
   21       -6.612588   1.000000
   22       -6.611559   1.000000
   23       -5.481823   1.000000
   24       -5.481071   1.000000
   25       -2.860262   0.000000
   26       -2.856362   0.000000
   27       -2.739902   0.000000
   28       -2.735662   0.000000
   29       -2.601364   0.000000
   30       -2.598241   0.000000
   31       -2.527146   0.000000
   32       -2.523731   0.000000
   33        0.483820   0.000000
   34        0.486949   0.000000
   35        1.289055   0.000000
   36        1.292410   0.000000
   37        1.909825   0.000000
   38        1.946354   0.000000
   39        2.472908   0.000000
   40        2.920551   0.000000
 
  0.8333333E-01  0.8333333E-01  0.0000000E+00  0.6944444E-02
    1      -42.037710   1.000000
    2      -42.036616   1.000000
    3      -39.661742   1.000000
    4      -39.660968   1.000000
    5      -39.560430   1.000000
    6      -39.558086   1.000000
    7      -19.209663   1.000000
    8      -19.207449   1.000000
    9      -18.077133   1.000000
   10      -18.076412   1.000000
   11      -10.710439   1.000000
   12      -10.707831   1.000000
   13       -8.670840   1.000000
   14       -8.659374   1.000000
   15       -8.115624   1.000000
   16       -8.114955   1.000000
   17       -7.789472   1.000000
   18       -7.764283   1.000000
   19       -7.504753   1.000000
   20       -7.500213   1.000000
   21       -6.435769   1.000000
   22       -6.412068   1.000000
   23       -5.638107   1.000000
   24       -5.632447   1.000000
   25       -3.069370   0.000000
   26       -3.059026   0.000000
   27       -3.008272   0.000000
   28       -2.955791   0.000000
   29       -2.799302   0.000000
   30       -2.774682   0.000000
   31       -2.234860   0.000000
   32       -2.186526   0.000000
   33        0.777065   0.000000
   34        0.780174   0.000000
   35        1.944241   0.000000
   36        1.949036   0.000000
   37        2.213890   0.000000
   38        2.224556   0.000000
   39        2.767077   0.000000
   40        2.778992   0.000000
 
  0.1666667E+00  0.8333333E-01  0.0000000E+00  0.6944444E-02
    1      -42.060520   1.000000
    2      -42.057522   1.000000
    3      -39.682080   1.000000
    4      -39.681541   1.000000
    5      -39.599538   1.000000
    6      -39.594637   1.000000
    7      -18.855106   1.000000
    8      -18.848750   1.000000
    9      -17.931229   1.000000
   10      -17.930061   1.000000
   11      -10.431394   1.000000
   12      -10.421942   1.000000
   13       -9.133878   1.000000
   14       -9.129850   1.000000
   15       -8.661049   1.000000
   16       -8.650183   1.000000
   17       -8.039289   1.000000
   18       -8.032836   1.000000
   19       -7.488009   1.000000
   20       -7.450955   1.000000
   21       -6.469875   1.000000
   22       -6.442515   1.000000
   23       -6.000379   1.000000
   24       -5.975197   1.000000
   25       -3.360212   0.000000
   26       -3.326546   0.000000
   27       -3.021993   0.000000
   28       -3.006959   0.000000
   29       -2.924495   0.000000
   30       -2.860298   0.000000
   31       -1.775743   0.000000
   32       -1.729801   0.000000
   33        1.272341   0.000000
   34        1.275534   0.000000
   35        2.587123   0.000000
   36        2.621214   0.000000
   37        2.800967   0.000000
   38        2.838915   0.000000
   39        3.457182   0.000000
   40        4.180464   0.000000
 
  0.2500000E+00  0.8333333E-01  0.0000000E+00  0.6944444E-02
    1      -42.087833   1.000000
    2      -42.082586   1.000000
    3      -39.725684   1.000000
    4      -39.721850   1.000000
    5      -39.622013   1.000000
    6      -39.618264   1.000000
    7      -18.405453   1.000000
    8      -18.393311   1.000000
    9      -17.747426   1.000000
   10      -17.745719   1.000000
   11      -10.453289   1.000000
   12      -10.440610   1.000000
   13       -9.333926   1.000000
   14       -9.316402   1.000000
   15       -9.298906   1.000000
   16       -9.281287   1.000000
   17       -8.394020   1.000000
   18       -8.383604   1.000000
   19       -7.247972   1.000000
   20       -7.186826   1.000000
   21       -6.756694   1.000000
   22       -6.735055   1.000000
   23       -6.324455   1.000000
   24       -6.261945   1.000000
   25       -3.450748   0.000000
   26       -3.383484   0.000000
   27       -3.077991   0.000000
   28       -3.046072   0.000000
   29       -2.523696   0.000000
   30       -2.475565   0.000000
   31       -1.408175   0.000000
   32       -1.371891   0.000000
   33        1.893234   0.000000
   34        1.899733   0.000000
   35        2.912285   0.000000
   36        2.919317   0.000000
   37        3.123059   0.000000
   38        3.129058   0.000000
   39        3.450121   0.000000
   40        3.508397   0.000000
 
  0.3333333E+00  0.8333333E-01  0.0000000E+00  0.6944444E-02
    1      -42.112318   1.000000
    2      -42.105087   1.000000
    3      -39.773719   1.000000
    4      -39.765188   1.000000
    5      -39.629730   1.000000
    6      -39.627877   1.000000
    7      -17.967687   1.000000
    8      -17.949102   1.000000
    9      -17.571665   1.000000
   10      -17.569474   1.000000
   11      -10.783329   1.000000
   12      -10.783076   1.000000
   13       -9.891773   1.000000
   14       -9.884249   1.000000
   15       -9.335407   1.000000
   16       -9.334659   1.000000
   17       -8.559966   1.000000
   18       -8.550123   1.000000
   19       -7.143549   1.000000
   20       -7.090180   1.000000
   21       -7.047992   1.000000
   22       -7.030908   1.000000
   23       -6.244207   1.000000
   24       -6.156576   1.000000
   25       -3.330721   0.000000
   26       -3.296746   0.000000
   27       -2.971408   0.000000
   28       -2.959795   0.000000
   29       -2.033753   0.000000
   30       -1.999594   0.000000
   31       -1.246014   0.000000
   32       -1.222257   0.000000
   33        1.840873   0.000000
   34        1.847047   0.000000
   35        2.588531   0.000000
   36        2.597616   0.000000
   37        2.951919   0.000000
   38        2.962902   0.000000
   39        3.676201   0.000000
   40        3.731039   0.000000
 
  0.4166667E+00  0.8333333E-01  0.0000000E+00  0.6944444E-02
    1      -42.126800   1.000000
    2      -42.118409   1.000000
    3      -39.802731   1.000000
    4      -39.791632   1.000000
    5      -39.632094   1.000000
    6      -39.631192   1.000000
    7      -17.686397   1.000000
    8      -17.663210   1.000000
    9      -17.461218   1.000000
   10      -17.459241   1.000000
   11      -11.044012   1.000000
   12      -11.032436   1.000000
   13      -10.229021   1.000000
   14      -10.223615   1.000000
   15       -9.452966   1.000000
   16       -9.445503   1.000000
   17       -8.617629   1.000000
   18       -8.608081   1.000000
   19       -7.276811   1.000000
   20       -7.271709   1.000000
   21       -6.987774   1.000000
   22       -6.920469   1.000000
   23       -6.011591   1.000000
   24       -5.913876   1.000000
   25       -3.279953   0.000000
   26       -3.239431   0.000000
   27       -2.806143   0.000000
   28       -2.711353   0.000000
   29       -1.638464   0.000000
   30       -1.611333   0.000000
   31       -1.316542   0.000000
   32       -1.299733   0.000000
   33        0.968035   0.000000
   34        0.984277   0.000000
   35        2.924249   0.000000
   36        2.939667   0.000000
   37        3.129626   0.000000
   38        3.148226   0.000000
   39        3.817858   0.000000
   40        4.679090   0.000000
 
  0.5000000E+00  0.8333333E-01  0.0000000E+00  0.6944444E-02
    1      -42.126800   1.000000
    2      -42.118409   1.000000
    3      -39.802731   1.000000
    4      -39.791632   1.000000
    5      -39.632094   1.000000
    6      -39.631192   1.000000
    7      -17.686399   1.000000
    8      -17.663208   1.000000
    9      -17.461198   1.000000
   10      -17.459260   1.000000
   11      -11.044012   1.000000
   12      -11.032436   1.000000
   13      -10.229022   1.000000
   14      -10.223617   1.000000
   15       -9.452965   1.000000
   16       -9.445502   1.000000
   17       -8.617626   1.000000
   18       -8.608078   1.000000
   19       -7.276814   1.000000
   20       -7.271710   1.000000
   21       -6.987776   1.000000
   22       -6.920472   1.000000
   23       -6.011589   1.000000
   24       -5.913874   1.000000
   25       -3.279953   0.000000
   26       -3.239432   0.000000
   27       -2.806140   0.000000
   28       -2.711350   0.000000
   29       -1.638444   0.000000
   30       -1.611310   0.000000
   31       -1.316567   0.000000
   32       -1.299755   0.000000
   33        0.968035   0.000000
   34        0.984277   0.000000
   35        2.924246   0.000000
   36        2.939675   0.000000
   37        3.129597   0.000000
   38        3.148268   0.000000
   39        3.804139   0.000000
   40        4.487272   0.000000
 
 -0.4166667E+00  0.8333333E-01  0.0000000E+00  0.6944444E-02
    1      -42.112318   1.000000
    2      -42.105087   1.000000
    3      -39.773719   1.000000
    4      -39.765187   1.000000
    5      -39.629730   1.000000
    6      -39.627877   1.000000
    7      -17.967691   1.000000
    8      -17.949099   1.000000
    9      -17.571635   1.000000
   10      -17.569501   1.000000
   11      -10.783327   1.000000
   12      -10.783080   1.000000
   13       -9.891777   1.000000
   14       -9.884255   1.000000
   15       -9.335423   1.000000
   16       -9.334642   1.000000
   17       -8.559959   1.000000
   18       -8.550116   1.000000
   19       -7.143553   1.000000
   20       -7.090188   1.000000
   21       -7.047991   1.000000
   22       -7.030918   1.000000
   23       -6.244199   1.000000
   24       -6.156571   1.000000
   25       -3.330725   0.000000
   26       -3.296749   0.000000
   27       -2.971402   0.000000
   28       -2.959787   0.000000
   29       -2.033738   0.000000
   30       -1.999577   0.000000
   31       -1.246035   0.000000
   32       -1.222277   0.000000
   33        1.840873   0.000000
   34        1.847046   0.000000
   35        2.588540   0.000000
   36        2.597605   0.000000
   37        2.951924   0.000000
   38        2.962899   0.000000
   39        3.664004   0.000000
   40        3.688998   0.000000
 
 -0.3333333E+00  0.8333333E-01  0.0000000E+00  0.6944444E-02
    1      -42.087833   1.000000
    2      -42.082586   1.000000
    3      -39.725684   1.000000
    4      -39.721849   1.000000
    5      -39.622014   1.000000
    6      -39.618264   1.000000
    7      -18.405457   1.000000
    8      -18.393307   1.000000
    9      -17.747395   1.000000
   10      -17.745747   1.000000
   11      -10.453290   1.000000
   12      -10.440611   1.000000
   13       -9.333921   1.000000
   14       -9.316415   1.000000
   15       -9.298919   1.000000
   16       -9.281282   1.000000
   17       -8.394014   1.000000
   18       -8.383598   1.000000
   19       -7.247974   1.000000
   20       -7.186829   1.000000
   21       -6.756698   1.000000
   22       -6.735060   1.000000
   23       -6.324446   1.000000
   24       -6.261937   1.000000
   25       -3.450755   0.000000
   26       -3.383492   0.000000
   27       -3.077983   0.000000
   28       -3.046064   0.000000
   29       -2.523692   0.000000
   30       -2.475559   0.000000
   31       -1.408183   0.000000
   32       -1.371898   0.000000
   33        1.893229   0.000000
   34        1.899737   0.000000
   35        2.912284   0.000000
   36        2.919325   0.000000
   37        3.125816   0.000000
   38        3.137608   0.000000
   39        3.426286   0.000000
   40        3.511070   0.000000
 
 -0.2500000E+00  0.8333333E-01  0.0000000E+00  0.6944444E-02
    1      -42.060520   1.000000
    2      -42.057523   1.000000
    3      -39.682086   1.000000
    4      -39.681535   1.000000
    5      -39.599538   1.000000
    6      -39.594638   1.000000
    7      -18.855111   1.000000
    8      -18.848745   1.000000
    9      -17.931196   1.000000
   10      -17.930091   1.000000
   11      -10.431395   1.000000
   12      -10.421943   1.000000
   13       -9.133884   1.000000
   14       -9.129854   1.000000
   15       -8.661047   1.000000
   16       -8.650179   1.000000
   17       -8.039294   1.000000
   18       -8.032840   1.000000
   19       -7.488007   1.000000
   20       -7.450953   1.000000
   21       -6.469875   1.000000