 running on    8 total cores
 distrk:  each k-point on    8 cores,    1 groups
 distr:  one band on    1 cores,    8 groups
 using from now: INCAR     
 vasp.5.4.1 05Feb16 (build Feb 01 2017 11:38:15) complex                        
  
 POSCAR found type information on POSCAR  Mo S 
 POSCAR found :  2 types and       3 ions
 scaLAPACK will be used

 ----------------------------------------------------------------------------- 
|                                                                             |
|           W    W    AA    RRRRR   N    N  II  N    N   GGGG   !!!           |
|           W    W   A  A   R    R  NN   N  II  NN   N  G    G  !!!           |
|           W    W  A    A  R    R  N N  N  II  N N  N  G       !!!           |
|           W WW W  AAAAAA  RRRRR   N  N N  II  N  N N  G  GGG   !            |
|           WW  WW  A    A  R   R   N   NN  II  N   NN  G    G                |
|           W    W  A    A  R    R  N    N  II  N    N   GGGG   !!!           |
|                                                                             |
|      For optimal performance we recommend to set                            |
|        NCORE= 4 - approx SQRT( number of cores)                             |
|      NCORE specifies how many cores store one orbital (NPAR=cpu/NCORE).     |
|      This setting can  greatly improve the performance of VASP for DFT.     |
|      The default, NPAR=number of cores might be grossly inefficient         |
|      on modern multi-core architectures or massively parallel machines.     |
|      Do your own testing !!!!                                               |
|      Unfortunately you need to use the default for GW and RPA calculations. |
|      (for HF NCORE is supported but not extensively tested yet)             |
|                                                                             |
 ----------------------------------------------------------------------------- 

 LDA part: xc-table for Pade appr. of Perdew
 POSCAR, INCAR and KPOINTS ok, starting setup
 FFT: planning ...
 WAVECAR not read
 entering main loop
       N       E                     dE             d eps       ncg     rms          ort
DAV:   1     0.209569692734E+03    0.20957E+03   -0.10544E+04  5760   0.102E+03
DAV:   2     0.387906436377E+01   -0.20569E+03   -0.19563E+03  5760   0.236E+02
DAV:   3    -0.205470975267E+02   -0.24426E+02   -0.23931E+02  5760   0.770E+01
DAV:   4    -0.214539626530E+02   -0.90687E+00   -0.90336E+00  5760   0.174E+01
DAV:   5    -0.214799388311E+02   -0.25976E-01   -0.25966E-01  5760   0.289E+00
 gam= 0.000 g(H,U,f)=  0.114E+02 0.135E+02 0.333E-13 ort(H,U,f) = 0.000E+00 0.000E+00 0.000E+00
SDA:   6    -0.172386000568E+02    0.42413E+01   -0.25966E-01  5760   0.249E+02 0.000E+00
 gam= 0.000 trial= 0.400  step= 0.294 mean= 0.400
 gam= 0.104 g(H,U,f)=  0.179E+01 0.806E+00 0.204E-11 ort(H,U,f) =-0.177E+01 0.138E+01-0.282E-11
CGA:   7    -0.210313136826E+02   -0.37927E+01   -0.36554E+01  5760   0.260E+01-0.395E+00
 gam= 0.104 trial= 0.395  step= 0.346 mean= 0.395
 gam= 0.356 g(H,U,f)=  0.773E+00 0.151E+00 0.344E-14 ort(H,U,f) =-0.462E-01 0.464E-01-0.312E-16
CGA:   8    -0.214729344872E+02   -0.44162E+00   -0.44139E+00  5760   0.924E+00 0.214E-03
 gam= 0.356 trial= 0.392  step= 0.391 mean= 0.392
 gam= 0.369 g(H,U,f)=  0.300E+00 0.408E-01 0.136E-20 ort(H,U,f) =-0.850E-01 0.880E-01 0.191E-20
CGA:   9    -0.216535524575E+02   -0.18062E+00   -0.18062E+00  5760   0.341E+00 0.298E-02
 gam= 0.369 trial= 0.392  step= 0.342 mean= 0.392
 gam= 0.387 g(H,U,f)=  0.104E+00 0.281E-01 0.182E-18 ort(H,U,f) =-0.191E-01 0.182E-01 0.102E-17
CGA:  10    -0.217120926947E+02   -0.58540E-01   -0.58471E-01  5760   0.132E+00-0.827E-03
 gam= 0.387 trial= 0.390  step= 0.428 mean= 0.390
 gam= 0.284 g(H,U,f)=  0.338E-01 0.365E-02 0.191E-13 ort(H,U,f) =-0.105E-01 0.105E-01 0.491E-13
CGA:  11    -0.217402634419E+02   -0.28171E-01   -0.28170E-01  5760   0.375E-01 0.196E-04
 gam= 0.284 trial= 0.392  step= 0.429 mean= 0.392
 gam= 0.449 g(H,U,f)=  0.139E-01 0.287E-02 0.663E-20 ort(H,U,f) =-0.370E-02 0.367E-02 0.147E-19
CGA:  12    -0.217483001389E+02   -0.80367E-02   -0.80370E-02  5760   0.168E-01-0.300E-04
 gam= 0.449 trial= 0.393  step= 0.492 mean= 0.393
 gam= 0.387 g(H,U,f)=  0.519E-02 0.133E-02 0.187E-12 ort(H,U,f) =-0.190E-02 0.186E-02 0.941E-12
CGA:  13    -0.217524392942E+02   -0.41392E-02   -0.41347E-02  5760   0.651E-02-0.430E-04
 gam= 0.387 trial= 0.398  step= 0.462 mean= 0.398
 gam= 0.410 g(H,U,f)=  0.207E-02 0.596E-03 0.968E-14 ort(H,U,f) =-0.400E-03 0.490E-03 0.848E-13
CGA:  14    -0.217539418374E+02   -0.15025E-02   -0.15002E-02  5760   0.267E-02 0.893E-04
 gam= 0.410 trial= 0.402  step= 0.474 mean= 0.402
 gam= 0.360 g(H,U,f)=  0.736E-03 0.225E-03 0.212E-25 ort(H,U,f) =-0.272E-03 0.323E-03-0.129E-24
CGA:  15    -0.217545857704E+02   -0.64393E-03   -0.64158E-03  5760   0.961E-03 0.513E-04
 gam= 0.360 trial= 0.405  step= 0.581 mean= 0.405
 gam= 0.492 g(H,U,f)=  0.370E-03 0.103E-03 0.210E-22 ort(H,U,f) =-0.162E-03 0.182E-03-0.751E-22
CGA:  16    -0.217548725960E+02   -0.28683E-03   -0.28458E-03  5760   0.473E-03 0.200E-04
 gam= 0.492 trial= 0.414  step= 0.625 mean= 0.414
 gam= 0.458 g(H,U,f)=  0.175E-03 0.418E-04 0.722E-18 ort(H,U,f) =-0.824E-04 0.898E-04-0.433E-18
CGA:  17    -0.217550242579E+02   -0.15166E-03   -0.15064E-03  5760   0.216E-03 0.740E-05
 gam= 0.458 trial= 0.424  step= 0.670 mean= 0.424
 gam= 0.426 g(H,U,f)=  0.811E-04 0.113E-04 0.329E-15 ort(H,U,f) =-0.297E-04 0.317E-04 0.467E-15
CGA:  18    -0.217550982475E+02   -0.73990E-04   -0.73677E-04  5760   0.923E-04 0.203E-05
 gam= 0.426 trial= 0.437  step= 0.625 mean= 0.437
 gam= 0.408 g(H,U,f)=  0.298E-04 0.786E-05 0.118E-14 ort(H,U,f) =-0.757E-05 0.759E-05 0.109E-14
CGA:  19    -0.217551273682E+02   -0.29121E-04   -0.29111E-04  5760   0.376E-04 0.177E-07
 gam= 0.408 trial= 0.446  step= 0.549 mean= 0.446
 gam= 0.509 g(H,U,f)=  0.121E-04 0.702E-05 0.311E-13 ort(H,U,f) = 0.148E-06-0.824E-06 0.597E-13
CGA:  20    -0.217551376699E+02   -0.10302E-04   -0.10336E-04  5760   0.192E-04-0.676E-06
 gam= 0.509 trial= 0.451  step= 0.466 mean= 0.451
 gam= 0.377 g(H,U,f)=  0.545E-05 0.178E-05 0.761E-14 ort(H,U,f) =-0.397E-06-0.149E-06 0.232E-13
CGA:  21    -0.217551420473E+02   -0.43775E-05   -0.43820E-05  5760   0.722E-05-0.547E-06
 gam= 0.377 trial= 0.452  step= 0.604 mean= 0.452
 gam= 0.371 g(H,U,f)=  0.221E-05 0.475E-06 0.159E-26 ort(H,U,f) =-0.348E-06 0.153E-06-0.536E-26
CGA:  22    -0.217551441495E+02   -0.21022E-05   -0.21180E-05  5760   0.268E-05-0.195E-06
 gam= 0.371 trial= 0.460  step= 0.592 mean= 0.460
 gam= 0.353 g(H,U,f)=  0.751E-06 0.195E-06 0.420E-26 ort(H,U,f) = 0.135E-06 0.259E-07 0.158E-25
CGA:  23    -0.217551449311E+02   -0.78162E-06   -0.77193E-06  5760   0.947E-06 0.161E-06
 gam= 0.353 trial= 0.466  step= 0.513 mean= 0.466
 gam= 0.385 g(H,U,f)=  0.264E-06 0.100E-06 0.133E-23 ort(H,U,f) = 0.131E-06-0.784E-08 0.584E-26
CGA:  24    -0.217551451908E+02   -0.25971E-06   -0.25757E-06  5760   0.365E-06 0.123E-06
 gam= 0.385 trial= 0.469  step= 0.461 mean= 0.469
 gam= 0.348 g(H,U,f)=  0.969E-07 0.300E-07 0.364E-23 ort(H,U,f) = 0.666E-07-0.399E-08 0.818E-23
CGA:  25    -0.217551452848E+02   -0.93916E-07   -0.94833E-07  5760   0.127E-06 0.626E-07
 gam= 0.348 trial= 0.468  step= 0.541 mean= 0.468
   1 F= -.21755145E+02 E0= -.21755145E+02  d E =-.328121E-18  mag=     0.0000     0.0000     0.0000
 writing wavefunctions
