       N       E                     dE             d eps       ncg     rms          ort
DAV:   1     0.209569692734E+03    0.20957E+03   -0.10544E+04  5760   0.102E+03
DAV:   2     0.387906436377E+01   -0.20569E+03   -0.19563E+03  5760   0.236E+02
DAV:   3    -0.205470975267E+02   -0.24426E+02   -0.23931E+02  5760   0.770E+01
DAV:   4    -0.214539626530E+02   -0.90687E+00   -0.90336E+00  5760   0.174E+01
DAV:   5    -0.214799388311E+02   -0.25976E-01   -0.25966E-01  5760   0.289E+00
SDA:   6    -0.172386000568E+02    0.42413E+01   -0.25966E-01  5760   0.249E+02 0.000E+00
CGA:   7    -0.210313136826E+02   -0.37927E+01   -0.36554E+01  5760   0.260E+01-0.395E+00
CGA:   8    -0.214729344872E+02   -0.44162E+00   -0.44139E+00  5760   0.924E+00 0.214E-03
CGA:   9    -0.216535524575E+02   -0.18062E+00   -0.18062E+00  5760   0.341E+00 0.298E-02
CGA:  10    -0.217120926947E+02   -0.58540E-01   -0.58471E-01  5760   0.132E+00-0.827E-03
CGA:  11    -0.217402634419E+02   -0.28171E-01   -0.28170E-01  5760   0.375E-01 0.196E-04
CGA:  12    -0.217483001389E+02   -0.80367E-02   -0.80370E-02  5760   0.168E-01-0.300E-04
CGA:  13    -0.217524392942E+02   -0.41392E-02   -0.41347E-02  5760   0.651E-02-0.430E-04
CGA:  14    -0.217539418374E+02   -0.15025E-02   -0.15002E-02  5760   0.267E-02 0.893E-04
CGA:  15    -0.217545857704E+02   -0.64393E-03   -0.64158E-03  5760   0.961E-03 0.513E-04
CGA:  16    -0.217548725960E+02   -0.28683E-03   -0.28458E-03  5760   0.473E-03 0.200E-04
CGA:  17    -0.217550242579E+02   -0.15166E-03   -0.15064E-03  5760   0.216E-03 0.740E-05
CGA:  18    -0.217550982475E+02   -0.73990E-04   -0.73677E-04  5760   0.923E-04 0.203E-05
CGA:  19    -0.217551273682E+02   -0.29121E-04   -0.29111E-04  5760   0.376E-04 0.177E-07
CGA:  20    -0.217551376699E+02   -0.10302E-04   -0.10336E-04  5760   0.192E-04-0.676E-06
CGA:  21    -0.217551420473E+02   -0.43775E-05   -0.43820E-05  5760   0.722E-05-0.547E-06
CGA:  22    -0.217551441495E+02   -0.21022E-05   -0.21180E-05  5760   0.268E-05-0.195E-06
CGA:  23    -0.217551449311E+02   -0.78162E-06   -0.77193E-06  5760   0.947E-06 0.161E-06
CGA:  24    -0.217551451908E+02   -0.25971E-06   -0.25757E-06  5760   0.365E-06 0.123E-06
CGA:  25    -0.217551452848E+02   -0.93916E-07   -0.94833E-07  5760   0.127E-06 0.626E-07
   1 F= -.21755145E+02 E0= -.21755145E+02  d E =-.328121E-18  mag=     0.0000     0.0000     0.0000
