<?xml version="1.0" encoding="ISO-8859-1"?>
<modeling>
 <generator>
  <i name="program" type="string">vasp </i>
  <i name="version" type="string">5.4.1  </i>
  <i name="subversion" type="string">05Feb16 (build Feb 01 2017 11:38:15) complex                          parallel </i>
  <i name="platform" type="string">IFC91_ompi </i>
  <i name="date" type="string">2025 10 20 </i>
  <i name="time" type="string">17:03:12 </i>
 </generator>
 <incar>
  <i type="string" name="SYSTEM"> MoS2 SOC SCF (warm, 12x12x1)</i>
  <i type="int" name="ISTART">     0</i>
  <i type="string" name="PREC">accurate</i>
  <i type="string" name="ALGO"> All</i>
  <i type="logical" name="LSORBIT"> T  </i>
  <v name="SAXIS">      0.00000000      0.00000000      1.00000000</v>
  <i name="AMIX">      0.20000000</i>
  <i name="BMIX">      0.00010000</i>
  <i name="AMIX_MAG">      0.20000000</i>
  <i name="BMIX_MAG">      0.00010000</i>
  <i type="int" name="ICHARG">     2</i>
  <i type="int" name="NELM">   200</i>
  <i type="int" name="IBRION">    -1</i>
  <i name="EDIFF">      0.00000010</i>
  <i type="int" name="NSW">     0</i>
  <i type="int" name="ISIF">     2</i>
  <i type="int" name="ISYM">     0</i>
  <i name="ENCUT">    600.00000000</i>
  <i type="logical" name="LREAL"> F  </i>
  <i type="int" name="ISMEAR">     0</i>
  <i name="SIGMA">      0.05000000</i>
  <i type="int" name="NWRITE">     3</i>
  <i type="int" name="LMAXMIX">     4</i>
  <i type="logical" name="LWAVE"> T  </i>
  <i type="logical" name="LCHARG"> T  </i>
  <i type="logical" name="LASPH"> T  </i>
  <i type="logical" name="GGA_COMPAT"> F  </i>
  <v type="int" name="KPOINT_BSE">    -1     0     0     0</v>
  <i type="int" name="NELM">   200</i>
  <i type="logical" name="LDIPOL"> T  </i>
  <i type="int" name="IDIPOL">     3</i>
  <v name="DIPOL">      0.50000000      0.50000000      0.50000000</v>
  <i type="logical" name="LASPH"> T  </i>
 </incar>
 <kpoints>
  <generation param="Gamma">
   <v type="int" name="divisions">      12       12        1 </v>
   <v name="usershift">      0.00000000       0.00000000       0.00000000 </v>
   <v name="genvec1">      0.08333333       0.00000000       0.00000000 </v>
   <v name="genvec2">      0.00000000       0.08333333       0.00000000 </v>
   <v name="genvec3">      0.00000000       0.00000000       1.00000000 </v>
   <v name="shift">      0.00000000       0.00000000       0.00000000 </v>
  </generation>
  <varray name="kpointlist" >
   <v>       0.00000000       0.00000000       0.00000000 </v>
   <v>       0.08333333       0.00000000       0.00000000 </v>
   <v>       0.16666667       0.00000000       0.00000000 </v>
   <v>       0.25000000       0.00000000       0.00000000 </v>
   <v>       0.33333333       0.00000000       0.00000000 </v>
   <v>       0.41666667      -0.00000000       0.00000000 </v>
   <v>       0.50000000       0.00000000       0.00000000 </v>
   <v>      -0.41666667       0.00000000       0.00000000 </v>
   <v>      -0.33333333       0.00000000       0.00000000 </v>
   <v>      -0.25000000       0.00000000       0.00000000 </v>
   <v>      -0.16666667      -0.00000000       0.00000000 </v>
   <v>      -0.08333333       0.00000000       0.00000000 </v>
   <v>       0.00000000       0.08333333       0.00000000 </v>
   <v>       0.08333333       0.08333333       0.00000000 </v>
   <v>       0.16666667       0.08333333       0.00000000 </v>
   <v>       0.25000000       0.08333333       0.00000000 </v>
   <v>       0.33333333       0.08333333       0.00000000 </v>
   <v>       0.41666667       0.08333333       0.00000000 </v>
   <v>       0.50000000       0.08333333       0.00000000 </v>
   <v>      -0.41666667       0.08333333       0.00000000 </v>
   <v>      -0.33333333       0.08333333       0.00000000 </v>
   <v>      -0.25000000       0.08333333       0.00000000 </v>
   <v>      -0.16666667       0.08333333       0.00000000 </v>
   <v>      -0.08333333       0.08333333       0.00000000 </v>
   <v>       0.00000000       0.16666667       0.00000000 </v>
   <v>       0.08333333       0.16666667       0.00000000 </v>
   <v>       0.16666667       0.16666667       0.00000000 </v>
   <v>       0.25000000       0.16666667       0.00000000 </v>
   <v>       0.33333333       0.16666667       0.00000000 </v>
   <v>       0.41666667       0.16666667       0.00000000 </v>
   <v>       0.50000000       0.16666667       0.00000000 </v>
   <v>      -0.41666667       0.16666667       0.00000000 </v>
   <v>      -0.33333333       0.16666667       0.00000000 </v>
   <v>      -0.25000000       0.16666667       0.00000000 </v>
   <v>      -0.16666667       0.16666667       0.00000000 </v>
   <v>      -0.08333333       0.16666667       0.00000000 </v>
   <v>       0.00000000       0.25000000       0.00000000 </v>
   <v>       0.08333333       0.25000000       0.00000000 </v>
   <v>       0.16666667       0.25000000       0.00000000 </v>
   <v>       0.25000000       0.25000000       0.00000000 </v>
   <v>       0.33333333       0.25000000       0.00000000 </v>
   <v>       0.41666667       0.25000000       0.00000000 </v>
   <v>       0.50000000       0.25000000       0.00000000 </v>
   <v>      -0.41666667       0.25000000       0.00000000 </v>
   <v>      -0.33333333       0.25000000       0.00000000 </v>
   <v>      -0.25000000       0.25000000       0.00000000 </v>
   <v>      -0.16666667       0.25000000       0.00000000 </v>
   <v>      -0.08333333       0.25000000       0.00000000 </v>
   <v>       0.00000000       0.33333333       0.00000000 </v>
   <v>       0.08333333       0.33333333       0.00000000 </v>
   <v>       0.16666667       0.33333333       0.00000000 </v>
   <v>       0.25000000       0.33333333       0.00000000 </v>
   <v>       0.33333333       0.33333333       0.00000000 </v>
   <v>       0.41666667       0.33333333       0.00000000 </v>
   <v>       0.50000000       0.33333333       0.00000000 </v>
   <v>      -0.41666667       0.33333333       0.00000000 </v>
   <v>      -0.33333333       0.33333333       0.00000000 </v>
   <v>      -0.25000000       0.33333333       0.00000000 </v>
   <v>      -0.16666667       0.33333333       0.00000000 </v>
   <v>      -0.08333333       0.33333333       0.00000000 </v>
   <v>      -0.00000000       0.41666667       0.00000000 </v>
   <v>       0.08333333       0.41666667       0.00000000 </v>
   <v>       0.16666667       0.41666667       0.00000000 </v>
   <v>       0.25000000       0.41666667       0.00000000 </v>
   <v>       0.33333333       0.41666667       0.00000000 </v>
   <v>       0.41666667       0.41666667       0.00000000 </v>
   <v>       0.50000000       0.41666667       0.00000000 </v>
   <v>      -0.41666667       0.41666667       0.00000000 </v>
   <v>      -0.33333333       0.41666667       0.00000000 </v>
   <v>      -0.25000000       0.41666667       0.00000000 </v>
   <v>      -0.16666667       0.41666667       0.00000000 </v>
   <v>      -0.08333333       0.41666667       0.00000000 </v>
   <v>       0.00000000       0.50000000       0.00000000 </v>
   <v>       0.08333333       0.50000000       0.00000000 </v>
   <v>       0.16666667       0.50000000       0.00000000 </v>
   <v>       0.25000000       0.50000000       0.00000000 </v>
   <v>       0.33333333       0.50000000       0.00000000 </v>
   <v>       0.41666667       0.50000000       0.00000000 </v>
   <v>       0.50000000       0.50000000       0.00000000 </v>
   <v>      -0.41666667       0.50000000       0.00000000 </v>
   <v>      -0.33333333       0.50000000       0.00000000 </v>
   <v>      -0.25000000       0.50000000       0.00000000 </v>
   <v>      -0.16666667       0.50000000       0.00000000 </v>
   <v>      -0.08333333       0.50000000       0.00000000 </v>
   <v>       0.00000000      -0.41666667       0.00000000 </v>
   <v>       0.08333333      -0.41666667       0.00000000 </v>
   <v>       0.16666667      -0.41666667       0.00000000 </v>
   <v>       0.25000000      -0.41666667       0.00000000 </v>
   <v>       0.33333333      -0.41666667       0.00000000 </v>
   <v>       0.41666667      -0.41666667       0.00000000 </v>
   <v>       0.50000000      -0.41666667       0.00000000 </v>
   <v>      -0.41666667      -0.41666667       0.00000000 </v>
   <v>      -0.33333333      -0.41666667       0.00000000 </v>
   <v>      -0.25000000      -0.41666667       0.00000000 </v>
   <v>      -0.16666667      -0.41666667       0.00000000 </v>
   <v>      -0.08333333      -0.41666667       0.00000000 </v>
   <v>       0.00000000      -0.33333333       0.00000000 </v>
   <v>       0.08333333      -0.33333333       0.00000000 </v>
   <v>       0.16666667      -0.33333333       0.00000000 </v>
   <v>       0.25000000      -0.33333333       0.00000000 </v>
   <v>       0.33333333      -0.33333333       0.00000000 </v>
   <v>       0.41666667      -0.33333333       0.00000000 </v>
   <v>       0.50000000      -0.33333333       0.00000000 </v>
   <v>      -0.41666667      -0.33333333       0.00000000 </v>
   <v>      -0.33333333      -0.33333333       0.00000000 </v>
   <v>      -0.25000000      -0.33333333       0.00000000 </v>
   <v>      -0.16666667      -0.33333333       0.00000000 </v>
   <v>      -0.08333333      -0.33333333       0.00000000 </v>
   <v>       0.00000000      -0.25000000       0.00000000 </v>
   <v>       0.08333333      -0.25000000       0.00000000 </v>
   <v>       0.16666667      -0.25000000       0.00000000 </v>
   <v>       0.25000000      -0.25000000       0.00000000 </v>
   <v>       0.33333333      -0.25000000       0.00000000 </v>
   <v>       0.41666667      -0.25000000       0.00000000 </v>
   <v>       0.50000000      -0.25000000       0.00000000 </v>
   <v>      -0.41666667      -0.25000000       0.00000000 </v>
   <v>      -0.33333333      -0.25000000       0.00000000 </v>
   <v>      -0.25000000      -0.25000000       0.00000000 </v>
   <v>      -0.16666667      -0.25000000       0.00000000 </v>
   <v>      -0.08333333      -0.25000000       0.00000000 </v>
   <v>      -0.00000000      -0.16666667       0.00000000 </v>
   <v>       0.08333333      -0.16666667       0.00000000 </v>
   <v>       0.16666667      -0.16666667       0.00000000 </v>
   <v>       0.25000000      -0.16666667       0.00000000 </v>
   <v>       0.33333333      -0.16666667       0.00000000 </v>
   <v>       0.41666667      -0.16666667       0.00000000 </v>
   <v>       0.50000000      -0.16666667       0.00000000 </v>
   <v>      -0.41666667      -0.16666667       0.00000000 </v>
   <v>      -0.33333333      -0.16666667       0.00000000 </v>
   <v>      -0.25000000      -0.16666667       0.00000000 </v>
   <v>      -0.16666667      -0.16666667       0.00000000 </v>
   <v>      -0.08333333      -0.16666667       0.00000000 </v>
   <v>       0.00000000      -0.08333333       0.00000000 </v>
   <v>       0.08333333      -0.08333333       0.00000000 </v>
   <v>       0.16666667      -0.08333333       0.00000000 </v>
   <v>       0.25000000      -0.08333333       0.00000000 </v>
   <v>       0.33333333      -0.08333333       0.00000000 </v>
   <v>       0.41666667      -0.08333333       0.00000000 </v>
   <v>       0.50000000      -0.08333333       0.00000000 </v>
   <v>      -0.41666667      -0.08333333       0.00000000 </v>
   <v>      -0.33333333      -0.08333333       0.00000000 </v>
   <v>      -0.25000000      -0.08333333       0.00000000 </v>
   <v>      -0.16666667      -0.08333333       0.00000000 </v>
   <v>      -0.08333333      -0.08333333       0.00000000 </v>
  </varray>
  <varray name="weights" >
   <v>       0.00694444 </v>
   <v>       0.00694444 </v>
   <v>       0.00694444 </v>
   <v>       0.00694444 </v>
   <v>       0.00694444 </v>
   <v>       0.00694444 </v>
   <v>       0.00694444 </v>
   <v>       0.00694444 </v>
   <v>       0.00694444 </v>
   <v>       0.00694444 </v>
   <v>       0.00694444 </v>
   <v>       0.00694444 </v>
   <v>       0.00694444 </v>
   <v>       0.00694444 </v>
   <v>       0.00694444 </v>
   <v>       0.00694444 </v>
   <v>       0.00694444 </v>
   <v>       0.00694444 </v>
   <v>       0.00694444 </v>
   <v>       0.00694444 </v>
   <v>       0.00694444 </v>
   <v>       0.00694444 </v>
   <v>       0.00694444 </v>
   <v>       0.00694444 </v>
   <v>       0.00694444 </v>
   <v>       0.00694444 </v>
   <v>       0.00694444 </v>
   <v>       0.00694444 </v>
   <v>       0.00694444 </v>
   <v>       0.00694444 </v>
   <v>       0.00694444 </v>
   <v>       0.00694444 </v>
   <v>       0.00694444 </v>
   <v>       0.00694444 </v>
   <v>       0.00694444 </v>
   <v>       0.00694444 </v>
   <v>       0.00694444 </v>
   <v>       0.00694444 </v>
   <v>       0.00694444 </v>
   <v>       0.00694444 </v>
   <v>       0.00694444 </v>
   <v>       0.00694444 </v>
   <v>       0.00694444 </v>
   <v>       0.00694444 </v>
   <v>       0.00694444 </v>
   <v>       0.00694444 </v>
   <v>       0.00694444 </v>
   <v>       0.00694444 </v>
   <v>       0.00694444 </v>
   <v>       0.00694444 </v>
   <v>       0.00694444 </v>
   <v>       0.00694444 </v>
   <v>       0.00694444 </v>
   <v>       0.00694444 </v>
   <v>       0.00694444 </v>
   <v>       0.00694444 </v>
   <v>       0.00694444 </v>
   <v>       0.00694444 </v>
   <v>       0.00694444 </v>
   <v>       0.00694444 </v>
   <v>       0.00694444 </v>
   <v>       0.00694444 </v>
   <v>       0.00694444 </v>
   <v>       0.00694444 </v>
   <v>       0.00694444 </v>
   <v>       0.00694444 </v>
   <v>       0.00694444 </v>
   <v>       0.00694444 </v>
   <v>       0.00694444 </v>
   <v>       0.00694444 </v>
   <v>       0.00694444 </v>
   <v>       0.00694444 </v>
   <v>       0.00694444 </v>
   <v>       0.00694444 </v>
   <v>       0.00694444 </v>
   <v>       0.00694444 </v>
   <v>       0.00694444 </v>
   <v>       0.00694444 </v>
   <v>       0.00694444 </v>
   <v>       0.00694444 </v>
   <v>       0.00694444 </v>
   <v>       0.00694444 </v>
   <v>       0.00694444 </v>
   <v>       0.00694444 </v>
   <v>       0.00694444 </v>
   <v>       0.00694444 </v>
   <v>       0.00694444 </v>
   <v>       0.00694444 </v>
   <v>       0.00694444 </v>
   <v>       0.00694444 </v>
   <v>       0.00694444 </v>
   <v>       0.00694444 </v>
   <v>       0.00694444 </v>
   <v>       0.00694444 </v>
   <v>       0.00694444 </v>
   <v>       0.00694444 </v>
   <v>       0.00694444 </v>
   <v>       0.00694444 </v>
   <v>       0.00694444 </v>
   <v>       0.00694444 </v>
   <v>       0.00694444 </v>
   <v>       0.00694444 </v>
   <v>       0.00694444 </v>
   <v>       0.00694444 </v>
   <v>       0.00694444 </v>
   <v>       0.00694444 </v>
   <v>       0.00694444 </v>
   <v>       0.00694444 </v>
   <v>       0.00694444 </v>
   <v>       0.00694444 </v>
   <v>       0.00694444 </v>
   <v>       0.00694444 </v>
   <v>       0.00694444 </v>
   <v>       0.00694444 </v>
   <v>       0.00694444 </v>
   <v>       0.00694444 </v>
   <v>       0.00694444 </v>
   <v>       0.00694444 </v>
   <v>       0.00694444 </v>
   <v>       0.00694444 </v>
   <v>       0.00694444 </v>
   <v>       0.00694444 </v>
   <v>       0.00694444 </v>
   <v>       0.00694444 </v>
   <v>       0.00694444 </v>
   <v>       0.00694444 </v>
   <v>       0.00694444 </v>
   <v>       0.00694444 </v>
   <v>       0.00694444 </v>
   <v>       0.00694444 </v>
   <v>       0.00694444 </v>
   <v>       0.00694444 </v>
   <v>       0.00694444 </v>
   <v>       0.00694444 </v>
   <v>       0.00694444 </v>
   <v>       0.00694444 </v>
   <v>       0.00694444 </v>
   <v>       0.00694444 </v>
   <v>       0.00694444 </v>
   <v>       0.00694444 </v>
   <v>       0.00694444 </v>
   <v>       0.00694444 </v>
   <v>       0.00694444 </v>
   <v>       0.00694444 </v>
  </varray>
 </kpoints>
 <parameters>
  <separator name="general" >
   <i type="string" name="SYSTEM">MoS2 SOC SCF (warm, 12x12x1)</i>
   <i type="logical" name="LCOMPAT"> F  </i>
  </separator>
  <separator name="electronic" >
   <i type="string" name="PREC">accura</i>
   <i name="ENMAX">    600.00000000</i>
   <i name="ENAUG">    392.42700000</i>
   <i name="EDIFF">      0.00000010</i>
   <i type="int" name="IALGO">    58</i>
   <i type="int" name="IWAVPR">    10</i>
   <i type="int" name="NBANDS">    40</i>
   <i name="NELECT">     24.00000000</i>
   <i type="int" name="TURBO">     0</i>
   <i type="int" name="IRESTART">     0</i>
   <i type="int" name="NREBOOT">     0</i>
   <i type="int" name="NMIN">     0</i>
   <i name="EREF">      0.00000000</i>
   <separator name="electronic smearing" >
    <i type="int" name="ISMEAR">     0</i>
    <i name="SIGMA">      0.05000000</i>
    <i name="KSPACING">      0.50000000</i>
    <i type="logical" name="KGAMMA"> T  </i>
   </separator>
   <separator name="electronic projectors" >
    <i type="logical" name="LREAL"> F  </i>
    <v name="ROPT">      0.00000000      0.00000000</v>
    <i type="int" name="LMAXPAW">  -100</i>
    <i type="int" name="LMAXMIX">     4</i>
    <i type="logical" name="NLSPLINE"> F  </i>
   </separator>
   <separator name="electronic startup" >
    <i type="int" name="ISTART">     0</i>
    <i type="int" name="ICHARG">     2</i>
    <i type="int" name="INIWAV">     1</i>
   </separator>
   <separator name="electronic spin" >
    <i type="int" name="ISPIN">     1</i>
    <i type="logical" name="LNONCOLLINEAR"> T  </i>
    <v name="MAGMOM">      1.00000000      1.00000000      1.00000000      1.00000000      1.00000000      1.00000000      1.00000000      1.00000000      1.00000000</v>
    <i name="NUPDOWN">     -1.00000000</i>
    <i type="logical" name="LSORBIT"> T  </i>
    <v name="SAXIS">      0.00000000      0.00000000      1.00000000</v>
    <i type="logical" name="LSPIRAL"> F  </i>
    <v name="QSPIRAL">      0.00000000      0.00000000      0.00000000</v>
    <i type="logical" name="LZEROZ"> F  </i>
   </separator>
   <separator name="electronic exchange-correlation" >
    <i type="logical" name="LASPH"> T  </i>
    <i type="logical" name="LMETAGGA"> F  </i>
   </separator>
   <separator name="electronic convergence" >
    <i type="int" name="NELM">   200</i>
    <i type="int" name="NELMDL">    -5</i>
    <i type="int" name="NELMIN">     2</i>
    <i name="ENINI">    600.00000000</i>
    <separator name="electronic convergence detail" >
     <i type="logical" name="LDIAG"> T  </i>
     <i type="logical" name="LSUBROT"> F  </i>
     <i name="WEIMIN">      0.00000000</i>
     <i name="EBREAK">      0.00000000</i>
     <i name="DEPER">      0.30000000</i>
     <i type="int" name="NRMM">     4</i>
     <i name="TIME">      0.40000000</i>
    </separator>
   </separator>
   <separator name="electronic mixer" >
    <i name="AMIX">      0.20000000</i>
    <i name="BMIX">      0.00010000</i>
    <i name="AMIN">      0.10000000</i>
    <i name="AMIX_MAG">      0.20000000</i>
    <i name="BMIX_MAG">      0.00010000</i>
    <separator name="electronic mixer details" >
     <i type="int" name="IMIX">     4</i>
     <i type="logical" name="MIXFIRST"> F  </i>
     <i type="int" name="MAXMIX">   -45</i>
     <i name="WC">    100.00000000</i>
     <i type="int" name="INIMIX">     1</i>
     <i type="int" name="MIXPRE">     1</i>
     <i type="int" name="MREMOVE">     5</i>
    </separator>
   </separator>
   <separator name="electronic dipolcorrection" >
    <i type="logical" name="LDIPOL"> T  </i>
    <i type="logical" name="LMONO"> F  </i>
    <i type="int" name="IDIPOL">     3</i>
    <i name="EPSILON">      1.00000000</i>
    <v name="DIPOL">      0.50000000      0.50000000      0.50000000</v>
    <i name="EFIELD">      0.00000000</i>
   </separator>
  </separator>
  <separator name="grids" >
   <i type="int" name="NGX">    28</i>
   <i type="int" name="NGY">    28</i>
   <i type="int" name="NGZ">   280</i>
   <i type="int" name="NGXF">    56</i>
   <i type="int" name="NGYF">    56</i>
   <i type="int" name="NGZF">   560</i>
   <i type="logical" name="ADDGRID"> F  </i>
  </separator>
  <separator name="ionic" >
   <i type="int" name="NSW">     0</i>
   <i type="int" name="IBRION">    -1</i>
   <i type="int" name="ISIF">     2</i>
   <i name="PSTRESS">      0.00000000</i>
   <i name="EDIFFG">      0.00000100</i>
   <i type="int" name="NFREE">     0</i>
   <i name="POTIM">      0.50000000</i>
   <i name="SMASS">     -3.00000000</i>
   <i name="SCALEE">      1.00000000</i>
  </separator>
  <separator name="ionic md" >
   <i name="TEBEG">      0.00010000</i>
   <i name="TEEND">      0.00010000</i>
   <i type="int" name="NBLOCK">     1</i>
   <i type="int" name="KBLOCK">     1</i>
   <i type="int" name="NPACO">   256</i>
   <i name="APACO">     16.00000000</i>
  </separator>
  <separator name="symmetry" >
   <i type="int" name="ISYM">     0</i>
   <i name="SYMPREC">      0.00001000</i>
  </separator>
  <separator name="dos" >
   <i type="logical" name="LORBIT"> F  </i>
   <v name="RWIGS">     -1.00000000     -1.00000000</v>
   <i type="int" name="NEDOS">   301</i>
   <i name="EMIN">     10.00000000</i>
   <i name="EMAX">    -10.00000000</i>
   <i name="EFERMI">      0.00000000</i>
  </separator>
  <separator name="writing" >
   <i type="int" name="NWRITE">     3</i>
   <i type="logical" name="LWAVE"> T  </i>
   <i type="logical" name="LCHARG"> T  </i>
   <i type="logical" name="LPARD"> F  </i>
   <i type="logical" name="LVTOT"> F  </i>
   <i type="logical" name="LVHAR"> F  </i>
   <i type="logical" name="LELF"> F  </i>
   <i type="logical" name="LOPTICS"> F  </i>
   <v name="STM">      0.00000000      0.00000000      0.00000000      0.00000000      0.00000000      0.00000000      0.00000000</v>
  </separator>
  <separator name="performance" >
   <i type="int" name="NPAR">     8</i>
   <i type="int" name="NSIM">     4</i>
   <i type="int" name="NBLK">    -1</i>
   <i type="logical" name="LPLANE"> T  </i>
   <i type="logical" name="LSCALAPACK"> T  </i>
   <i type="logical" name="LSCAAWARE"> F  </i>
   <i type="logical" name="LSCALU"> F  </i>
   <i type="logical" name="LASYNC"> F  </i>
   <i type="logical" name="LORBITALREAL"> F  </i>
  </separator>
  <separator name="miscellaneous" >
   <i type="int" name="IDIOT">     3</i>
   <i type="logical" name="LMUSIC"> F  </i>
   <v name="POMASS">     95.94000000     32.06600000</v>
   <v name="DARWINR">      0.00000000      0.00000000</v>
   <v name="DARWINV">      1.00000000      1.00000000</v>
   <i type="logical" name="LCORR"> T  </i>
  </separator>
  <i type="logical" name="GGA_COMPAT"> F  </i>
  <i type="logical" name="LBERRY"> F  </i>
  <i type="int" name="ICORELEVEL">     0</i>
  <i type="logical" name="LDAU"> F  </i>
  <i type="int" name="I_CONSTRAINED_M">     0</i>
  <separator name="electronic exchange-correlation" >
   <i type="string" name="GGA">--</i>
   <i type="int" name="VOSKOWN">     0</i>
   <i type="logical" name="LHFCALC"> F  </i>
   <i type="string" name="PRECFOCK"></i>
   <i type="logical" name="LSYMGRAD"> F  </i>
   <i type="logical" name="LHFONE"> F  </i>
   <i type="logical" name="LRHFCALC"> F  </i>
   <i type="logical" name="LTHOMAS"> F  </i>
   <i type="logical" name="LMODELHF"> F  </i>
   <i name="ENCUT4O">     -1.00000000</i>
   <i type="int" name="EXXOEP">     0</i>
   <i type="int" name="FOURORBIT">     0</i>
   <i name="AEXX">      0.00000000</i>
   <i name="HFALPHA">      0.00000000</i>
   <i name="MCALPHA">      0.00000000</i>
   <i name="ALDAX">      1.00000000</i>
   <i name="AGGAX">      1.00000000</i>
   <i name="ALDAC">      1.00000000</i>
   <i name="AGGAC">      1.00000000</i>
   <i type="int" name="NKREDX">     1</i>
   <i type="int" name="NKREDY">     1</i>
   <i type="int" name="NKREDZ">     1</i>
   <i type="logical" name="SHIFTRED"> F  </i>
   <i type="logical" name="ODDONLY"> F  </i>
   <i type="logical" name="EVENONLY"> F  </i>
   <i type="int" name="LMAXFOCK">     0</i>
   <i type="int" name="NMAXFOCKAE">     0</i>
   <i type="logical" name="LFOCKAEDFT"> F  </i>
   <i name="HFSCREEN">      0.00000000</i>
   <i name="HFSCREENC">      0.00000000</i>
   <i type="int" name="NBANDSGWLOW">     0</i>
  </separator>
  <separator name="vdW DFT" >
   <i type="logical" name="LUSE_VDW"> F  </i>
   <i name="Zab_VDW">     -0.84910000</i>
   <i name="PARAM1">      0.12340000</i>
   <i name="PARAM2">      1.00000000</i>
   <i name="PARAM3">      0.00000000</i>
  </separator>
  <separator name="model GW" >
   <i type="int" name="MODEL_GW">     0</i>
   <i name="MODEL_EPS0">     61.86883188</i>
   <i name="MODEL_ALPHA">      1.00000000</i>
  </separator>
  <separator name="linear response parameters" >
   <i type="logical" name="LEPSILON"> F  </i>
   <i type="logical" name="LRPA"> F  </i>
   <i type="logical" name="LNABLA"> F  </i>
   <i type="logical" name="LVEL"> F  </i>
   <i type="int" name="KINTER">     0</i>
   <i name="CSHIFT">      0.10000000</i>
   <i name="OMEGAMAX">     -1.00000000</i>
   <i name="DEG_THRESHOLD">      0.00200000</i>
  </separator>
  <separator name="orbital magnetization" >
   <i type="logical" name="NUCIND"> F  </i>
   <v name="MAGPOS">      0.00000000      0.00000000      0.00000000</v>
   <i type="logical" name="LNICSALL"> T  </i>
   <i type="logical" name="ORBITALMAG"> F  </i>
   <i type="logical" name="LMAGBLOCH"> F  </i>
   <i type="logical" name="LCHIMAG"> F  </i>
   <i type="logical" name="LGAUGE"> T  </i>
   <i type="int" name="MAGATOM">     0</i>
   <v name="MAGDIPOL">      0.00000000      0.00000000      0.00000000</v>
   <v name="AVECCONST">      0.00000000      0.00000000      0.00000000</v>
  </separator>
  <separator name="response functions" >
   <i type="logical" name="LADDER"> F  </i>
   <i type="logical" name="LFXC"> F  </i>
   <i type="logical" name="LHARTREE"> T  </i>
   <i type="int" name="IBSE">     0</i>
   <v type="int" name="KPOINT">    -1     0     0     0</v>
   <i type="logical" name="LTCTE"> F  </i>
   <i type="logical" name="LTETE"> F  </i>
   <i type="logical" name="LTRIPLET"> F  </i>
   <i type="logical" name="LFXCEPS"> F  </i>
   <i type="logical" name="LFXHEG"> F  </i>
   <i type="int" name="NATURALO">     0</i>
   <i type="logical" name="L2ORDER"> F  </i>
   <i type="logical" name="LUSEW"> F  </i>
   <i name="ENCUTGW">     -2.00000000</i>
   <i name="ENCUTGWSOFT">     -2.00000000</i>
   <i name="ENCUTLF">     -1.00000000</i>
   <i type="int" name="LMAXMP2">    -1</i>
   <i name="SCISSOR">      0.00000000</i>
   <i type="int" name="NOMEGA">     0</i>
   <i type="int" name="NOMEGAR">     0</i>
   <i type="int" name="NBANDSGW">    -1</i>
   <i type="int" name="NBANDSO">    -1</i>
   <i type="int" name="NBANDSV">    -1</i>
   <i type="int" name="NELM">   200</i>
   <i type="int" name="NELMHF">     1</i>
   <i type="int" name="DIM">     3</i>
   <i type="int" name="ANTIRES">     0</i>
   <i name="OMEGAMAX">    -30.00000000</i>
   <i name="OMEGAMIN">    -30.00000000</i>
   <i name="OMEGATL">   -200.00000000</i>
   <i type="int" name="OMEGAGRID">     0</i>
   <i name="CSHIFT">     -0.10000000</i>
   <i type="logical" name="SELFENERGY"> F  </i>
   <i type="logical" name="LSPECTRAL"> F  </i>
   <i type="logical" name="LSPECTRALGW"> F  </i>
   <i type="logical" name="LSINGLES"> F  </i>
   <i type="logical" name="LFERMIGW"> F  </i>
   <i type="logical" name="ODDONLYGW"> F  </i>
   <i type="logical" name="EVENONLYGW"> F  </i>
   <i type="int" name="NKREDLFX">     1</i>
   <i type="int" name="NKREDLFY">     1</i>
   <i type="int" name="NKREDLFZ">     1</i>
   <i type="int" name="MAXMEM">  1800</i>
   <i type="int" name="TELESCOPE">     0</i>
   <i type="int" name="TAUPAR">     1</i>
   <i type="int" name="OMEGAPAR">    -1</i>
   <i name="LAMBDA">      1.00000000</i>
  </separator>
  <separator name="External order field" >
   <i name="OFIELD_KAPPA">      0.00000000</i>
   <v name="OFIELD_K">      0.00000000      0.00000000      0.00000000</v>
   <i name="OFIELD_Q6_NEAR">      0.00000000</i>
   <i name="OFIELD_Q6_FAR">      0.00000000</i>
   <i name="OFIELD_A">      0.00000000</i>
  </separator>
  <separator name="solvation model" >
   <i type="logical" name="LSOL"> F  </i>
  </separator>
 </parameters>
 <atominfo>
  <atoms>       3 </atoms>
  <types>       2 </types>
  <array name="atoms" >
   <dimension dim="1">ion</dimension>
   <field type="string">element</field>
   <field type="int">atomtype</field>
   <set>
    <rc><c>Mo</c><c>   1</c></rc>
    <rc><c>S </c><c>   2</c></rc>
    <rc><c>S </c><c>   2</c></rc>
   </set>
  </array>
  <array name="atomtypes" >
   <dimension dim="1">type</dimension>
   <field type="int">atomspertype</field>
   <field type="string">element</field>
   <field>mass</field>
   <field>valence</field>
   <field type="string">pseudopotential</field>
   <set>
    <rc><c>   1</c><c>Mo</c><c>     95.94000000</c><c>     12.00000000</c><c> PAW_PBE Mo_pv 08Apr2002                </c></rc>
    <rc><c>   2</c><c>S </c><c>     32.06600000</c><c>      6.00000000</c><c>  PAW_PBE S 17Jan2003                   </c></rc>
   </set>
  </array>
 </atominfo>
 <structure name="initialpos" >
  <crystal>
   <varray name="basis" >
    <v>       1.59817141      -2.76811338       0.00000000 </v>
    <v>       1.59817141       2.76811338       0.00000000 </v>
    <v>       0.00000000       0.00000000      34.96267827 </v>
   </varray>
   <i name="volume">    309.34415938 </i>
   <varray name="rec_basis" >
    <v>       0.31285756      -0.18062844       0.00000000 </v>
    <v>       0.31285756       0.18062844       0.00000000 </v>
    <v>       0.00000000       0.00000000       0.02860193 </v>
   </varray>
  </crystal>
  <varray name="positions" >
   <v>       0.66666700       0.33333300       0.10664700 </v>
   <v>       0.33333300       0.66666700       0.06198962 </v>
   <v>       0.33333300       0.66666700       0.15130538 </v>
  </varray>
 </structure>
 <calculation>
  <scstep>
   <time name="total">   81.49   81.53</time>
   <dipole>
    <v name="dipole">      0.00000000       0.00000000       0.42979289 </v>
    <i name="Tr[quadrupol]">    -54.92729326 </i>
    <i name="Echarged">      0.00000000 </i>
    <i name="Edipol_quadrupol">      0.00000000 </i>
    <i name="Eion">      0.00000000 </i>
   </dipole>
   <energy>
    <i name="alphaZ">    100.09635196 </i>
    <i name="ewald">  11816.21891409 </i>
    <i name="hartreedc"> -13380.95467617 </i>
    <i name="XCdc">     63.00355655 </i>
    <i name="pawpsdc">   1093.56890438 </i>
    <i name="pawaedc">  -1067.58196123 </i>
    <i name="eentropy">     -0.00189205 </i>
    <i name="bandstr">   -252.72368129 </i>
    <i name="atom">   1837.94417650 </i>
    <i name="e_fr_energy">    209.56969273 </i>
    <i name="e_wo_entrp">    209.57158479 </i>
    <i name="e_0_energy">    209.57063876 </i>
   </energy>
  </scstep>
  <scstep>
   <time name="total">   90.81   90.82</time>
   <dipole>
    <v name="dipole">      0.00000000       0.00000000       0.42979289 </v>
    <i name="Tr[quadrupol]">    -54.92729326 </i>
    <i name="Echarged">      0.00000000 </i>
    <i name="Edipol_quadrupol">      0.00000000 </i>
    <i name="Eion">      0.00000000 </i>
   </dipole>
   <energy>
    <i name="e_fr_energy">      3.87906436 </i>
    <i name="e_wo_entrp">      3.87916180 </i>
    <i name="e_0_energy">      3.87911308 </i>
   </energy>
  </scstep>
  <scstep>
   <time name="total">   87.91   87.91</time>
   <dipole>
    <v name="dipole">      0.00000000       0.00000000       0.42979289 </v>
    <i name="Tr[quadrupol]">    -54.92729326 </i>
    <i name="Echarged">      0.00000000 </i>
    <i name="Edipol_quadrupol">      0.00000000 </i>
    <i name="Eion">      0.00000000 </i>
   </dipole>
   <energy>
    <i name="e_fr_energy">    -20.54709753 </i>
    <i name="e_wo_entrp">    -20.54709753 </i>
    <i name="e_0_energy">    -20.54709753 </i>
   </energy>
  </scstep>
  <scstep>
   <time name="total">   85.51   85.51</time>
   <dipole>
    <v name="dipole">      0.00000000       0.00000000       0.42979289 </v>
    <i name="Tr[quadrupol]">    -54.92729326 </i>
    <i name="Echarged">      0.00000000 </i>
    <i name="Edipol_quadrupol">      0.00000000 </i>
    <i name="Eion">      0.00000000 </i>
   </dipole>
   <energy>
    <i name="e_fr_energy">    -21.45396265 </i>
    <i name="e_wo_entrp">    -21.45396265 </i>
    <i name="e_0_energy">    -21.45396265 </i>
   </energy>
  </scstep>
  <scstep>
   <time name="total">   96.70   96.71</time>
   <dipole>
    <v name="dipole">      0.00000000       0.00000000       0.42979289 </v>
    <i name="Tr[quadrupol]">    -54.92729326 </i>
    <i name="Echarged">      0.00000000 </i>
    <i name="Edipol_quadrupol">      0.00000000 </i>
    <i name="Eion">      0.00000000 </i>
   </dipole>
   <energy>
    <i name="e_fr_energy">    -21.47993883 </i>
    <i name="e_wo_entrp">    -21.47993883 </i>
    <i name="e_0_energy">    -21.47993883 </i>
   </energy>
  </scstep>
  <scstep>
   <time name="total">   76.44   76.45</time>
   <dipole>
    <v name="dipole">      0.00000000       0.00000000       0.66445221 </v>
    <i name="Tr[quadrupol]">    -63.21771483 </i>
    <i name="Echarged">      0.00000000 </i>
    <i name="Edipol_quadrupol">      0.00000000 </i>
    <i name="Eion">      0.00000000 </i>
   </dipole>
   <energy>
    <i name="e_fr_energy">    -17.23860006 </i>
    <i name="e_wo_entrp">    -17.23860006 </i>
    <i name="e_0_energy">    -17.23860006 </i>
   </energy>
  </scstep>
  <scstep>
   <time name="total">   76.66   76.67</time>
   <dipole>
    <v name="dipole">      0.00000000       0.00000000       0.10025305 </v>
    <i name="Tr[quadrupol]">    -52.10695888 </i>
    <i name="Echarged">      0.00000000 </i>
    <i name="Edipol_quadrupol">      0.00000000 </i>
    <i name="Eion">      0.00000000 </i>
   </dipole>
   <energy>
    <i name="e_fr_energy">    -21.03131368 </i>
    <i name="e_wo_entrp">    -21.03131368 </i>
    <i name="e_0_energy">    -21.03131368 </i>
   </energy>
  </scstep>
  <scstep>
   <time name="total">   76.76   76.77</time>
   <dipole>
    <v name="dipole">      0.00000000       0.00000000       0.15022531 </v>
    <i name="Tr[quadrupol]">    -53.25095297 </i>
    <i name="Echarged">      0.00000000 </i>
    <i name="Edipol_quadrupol">      0.00000000 </i>
    <i name="Eion">      0.00000000 </i>
   </dipole>
   <energy>
    <i name="e_fr_energy">    -21.47293449 </i>
    <i name="e_wo_entrp">    -21.47293449 </i>
    <i name="e_0_energy">    -21.47293449 </i>
   </energy>
  </scstep>
  <scstep>
   <time name="total">   76.75   76.75</time>
   <dipole>
    <v name="dipole">      0.00000000       0.00000000       0.23128382 </v>
    <i name="Tr[quadrupol]">    -54.77422878 </i>
    <i name="Echarged">      0.00000000 </i>
    <i name="Edipol_quadrupol">      0.00000000 </i>
    <i name="Eion">      0.00000000 </i>
   </dipole>
   <energy>
    <i name="e_fr_energy">    -21.65355246 </i>
    <i name="e_wo_entrp">    -21.65355246 </i>
    <i name="e_0_energy">    -21.65355246 </i>
   </energy>
  </scstep>
  <scstep>
   <time name="total">   76.69   76.69</time>
   <dipole>
    <v name="dipole">      0.00000000       0.00000000       0.19543384 </v>
    <i name="Tr[quadrupol]">    -53.74449684 </i>
    <i name="Echarged">      0.00000000 </i>
    <i name="Edipol_quadrupol">      0.00000000 </i>
    <i name="Eion">      0.00000000 </i>
   </dipole>
   <energy>
    <i name="e_fr_energy">    -21.71209269 </i>
    <i name="e_wo_entrp">    -21.71209269 </i>
    <i name="e_0_energy">    -21.71209269 </i>
   </energy>
  </scstep>
  <scstep>
   <time name="total">   76.60   76.61</time>
   <dipole>
    <v name="dipole">      0.00000000       0.00000000       0.19488571 </v>
    <i name="Tr[quadrupol]">    -53.70037974 </i>
    <i name="Echarged">      0.00000000 </i>
    <i name="Edipol_quadrupol">      0.00000000 </i>
    <i name="Eion">      0.00000000 </i>
   </dipole>
   <energy>
    <i name="e_fr_energy">    -21.74026344 </i>
    <i name="e_wo_entrp">    -21.74026344 </i>
    <i name="e_0_energy">    -21.74026344 </i>
   </energy>
  </scstep>
  <scstep>
   <time name="total">   76.44   76.44</time>
   <dipole>
    <v name="dipole">      0.00000000       0.00000000       0.20328387 </v>
    <i name="Tr[quadrupol]">    -53.90849468 </i>
    <i name="Echarged">      0.00000000 </i>
    <i name="Edipol_quadrupol">      0.00000000 </i>
    <i name="Eion">      0.00000000 </i>
   </dipole>
   <energy>
    <i name="e_fr_energy">    -21.74830014 </i>
    <i name="e_wo_entrp">    -21.74830014 </i>
    <i name="e_0_energy">    -21.74830014 </i>
   </energy>
  </scstep>
  <scstep>
   <time name="total">   76.56   76.56</time>
   <dipole>
    <v name="dipole">      0.00000000       0.00000000       0.19811586 </v>
    <i name="Tr[quadrupol]">    -53.74898794 </i>
    <i name="Echarged">      0.00000000 </i>
    <i name="Edipol_quadrupol">      0.00000000 </i>
    <i name="Eion">      0.00000000 </i>
   </dipole>
   <energy>
    <i name="e_fr_energy">    -21.75243929 </i>
    <i name="e_wo_entrp">    -21.75243929 </i>
    <i name="e_0_energy">    -21.75243929 </i>
   </energy>
  </scstep>
  <scstep>
   <time name="total">   76.42   76.42</time>
   <dipole>
    <v name="dipole">      0.00000000       0.00000000       0.20361705 </v>
    <i name="Tr[quadrupol]">    -53.83641481 </i>
    <i name="Echarged">      0.00000000 </i>
    <i name="Edipol_quadrupol">      0.00000000 </i>
    <i name="Eion">      0.00000000 </i>
   </dipole>
   <energy>
    <i name="e_fr_energy">    -21.75394184 </i>
    <i name="e_wo_entrp">    -21.75394184 </i>
    <i name="e_0_energy">    -21.75394184 </i>
   </energy>
  </scstep>
  <scstep>
   <time name="total">   76.64   76.64</time>
   <dipole>
    <v name="dipole">      0.00000000       0.00000000       0.20270134 </v>
    <i name="Tr[quadrupol]">    -53.80535600 </i>
    <i name="Echarged">      0.00000000 </i>
    <i name="Edipol_quadrupol">      0.00000000 </i>
    <i name="Eion">      0.00000000 </i>
   </dipole>
   <energy>
    <i name="e_fr_energy">    -21.75458577 </i>
    <i name="e_wo_entrp">    -21.75458577 </i>
    <i name="e_0_energy">    -21.75458577 </i>
   </energy>
  </scstep>
  <scstep>
   <time name="total">   76.40   76.43</time>
   <dipole>
    <v name="dipole">      0.00000000       0.00000000       0.20250246 </v>
    <i name="Tr[quadrupol]">    -53.80637340 </i>
    <i name="Echarged">      0.00000000 </i>
    <i name="Edipol_quadrupol">      0.00000000 </i>
    <i name="Eion">      0.00000000 </i>
   </dipole>
   <energy>
    <i name="e_fr_energy">    -21.75487260 </i>
    <i name="e_wo_entrp">    -21.75487260 </i>
    <i name="e_0_energy">    -21.75487260 </i>
   </energy>
  </scstep>
  <scstep>
   <time name="total">   76.62   76.62</time>
   <dipole>
    <v name="dipole">      0.00000000       0.00000000       0.20232892 </v>
    <i name="Tr[quadrupol]">    -53.80869640 </i>
    <i name="Echarged">      0.00000000 </i>
    <i name="Edipol_quadrupol">      0.00000000 </i>
    <i name="Eion">      0.00000000 </i>
   </dipole>
   <energy>
    <i name="e_fr_energy">    -21.75502426 </i>
    <i name="e_wo_entrp">    -21.75502426 </i>
    <i name="e_0_energy">    -21.75502426 </i>
   </energy>
  </scstep>
  <scstep>
   <time name="total">   76.70   76.70</time>
   <dipole>
    <v name="dipole">      0.00000000       0.00000000       0.20268310 </v>
    <i name="Tr[quadrupol]">    -53.81929841 </i>
    <i name="Echarged">      0.00000000 </i>
    <i name="Edipol_quadrupol">      0.00000000 </i>
    <i name="Eion">      0.00000000 </i>
   </dipole>
   <energy>
    <i name="e_fr_energy">    -21.75509825 </i>
    <i name="e_wo_entrp">    -21.75509825 </i>
    <i name="e_0_energy">    -21.75509825 </i>
   </energy>
  </scstep>
  <scstep>
   <time name="total">   76.59   76.60</time>
   <dipole>
    <v name="dipole">      0.00000000       0.00000000       0.20189696 </v>
    <i name="Tr[quadrupol]">    -53.80311573 </i>
    <i name="Echarged">      0.00000000 </i>
    <i name="Edipol_quadrupol">      0.00000000 </i>
    <i name="Eion">      0.00000000 </i>
   </dipole>
   <energy>
    <i name="e_fr_energy">    -21.75512737 </i>
    <i name="e_wo_entrp">    -21.75512737 </i>
    <i name="e_0_energy">    -21.75512737 </i>
   </energy>
  </scstep>
  <scstep>
   <time name="total">   76.30   76.30</time>
   <dipole>
    <v name="dipole">      0.00000000       0.00000000       0.20239080 </v>
    <i name="Tr[quadrupol]">    -53.81720427 </i>
    <i name="Echarged">      0.00000000 </i>
    <i name="Edipol_quadrupol">      0.00000000 </i>
    <i name="Eion">      0.00000000 </i>
   </dipole>
   <energy>
    <i name="e_fr_energy">    -21.75513767 </i>
    <i name="e_wo_entrp">    -21.75513767 </i>
    <i name="e_0_energy">    -21.75513767 </i>
   </energy>
  </scstep>
  <scstep>
   <time name="total">   76.50   76.51</time>
   <dipole>
    <v name="dipole">      0.00000000       0.00000000       0.20212839 </v>
    <i name="Tr[quadrupol]">    -53.81083671 </i>
    <i name="Echarged">      0.00000000 </i>
    <i name="Edipol_quadrupol">      0.00000000 </i>
    <i name="Eion">      0.00000000 </i>
   </dipole>
   <energy>
    <i name="e_fr_energy">    -21.75514205 </i>
    <i name="e_wo_entrp">    -21.75514205 </i>
    <i name="e_0_energy">    -21.75514205 </i>
   </energy>
  </scstep>
  <scstep>
   <time name="total">   76.49   76.49</time>
   <dipole>
    <v name="dipole">      0.00000000       0.00000000       0.20221504 </v>
    <i name="Tr[quadrupol]">    -53.81231952 </i>
    <i name="Echarged">      0.00000000 </i>
    <i name="Edipol_quadrupol">      0.00000000 </i>
    <i name="Eion">      0.00000000 </i>
   </dipole>
   <energy>
    <i name="e_fr_energy">    -21.75514415 </i>
    <i name="e_wo_entrp">    -21.75514415 </i>
    <i name="e_0_energy">    -21.75514415 </i>
   </energy>
  </scstep>
  <scstep>
   <time name="total">   76.48   76.48</time>
   <dipole>
    <v name="dipole">      0.00000000       0.00000000       0.20212673 </v>
    <i name="Tr[quadrupol]">    -53.81012723 </i>
    <i name="Echarged">      0.00000000 </i>
    <i name="Edipol_quadrupol">      0.00000000 </i>
    <i name="Eion">      0.00000000 </i>
   </dipole>
   <energy>
    <i name="e_fr_energy">    -21.75514493 </i>
    <i name="e_wo_entrp">    -21.75514493 </i>
    <i name="e_0_energy">    -21.75514493 </i>
   </energy>
  </scstep>
  <scstep>
   <time name="total">   76.46   76.46</time>
   <dipole>
    <v name="dipole">      0.00000000       0.00000000       0.20221118 </v>
    <i name="Tr[quadrupol]">    -53.81223772 </i>
    <i name="Echarged">      0.00000000 </i>
    <i name="Edipol_quadrupol">      0.00000000 </i>
    <i name="Eion">      0.00000000 </i>
   </dipole>
   <energy>
    <i name="e_fr_energy">    -21.75514519 </i>
    <i name="e_wo_entrp">    -21.75514519 </i>
    <i name="e_0_energy">    -21.75514519 </i>
   </energy>
  </scstep>
  <scstep>
   <time name="total">   76.46   76.46</time>
   <dipole>
    <v name="dipole">      0.00000000       0.00000000       0.20217512 </v>
    <i name="Tr[quadrupol]">    -53.81122801 </i>
    <i name="Echarged">      0.00000000 </i>
    <i name="Edipol_quadrupol">      0.00000000 </i>
    <i name="Eion">      0.00000000 </i>
   </dipole>
   <energy>
    <i name="alphaZ">     56.19814690 </i>
    <i name="ewald">  11816.21891409 </i>
    <i name="hartreedc"> -13384.08084027 </i>
    <i name="XCdc">     61.91696396 </i>
    <i name="pawpsdc">   1166.50381738 </i>
    <i name="pawaedc">  -1145.39086382 </i>
    <i name="eentropy">     -0.00000000 </i>
    <i name="bandstr">   -431.06546004 </i>
    <i name="atom">   1837.94417650 </i>
    <i name="e_fr_energy">    -21.75514528 </i>
    <i name="e_wo_entrp">    -21.75514528 </i>
    <i name="e_0_energy">    -21.75514528 </i>
   </energy>
  </scstep>
  <structure>
   <crystal>
    <varray name="basis" >
     <v>       1.59817141      -2.76811338       0.00000000 </v>
     <v>       1.59817141       2.76811338       0.00000000 </v>
     <v>       0.00000000       0.00000000      34.96267827 </v>
    </varray>
    <i name="volume">    309.34415938 </i>
    <varray name="rec_basis" >
     <v>       0.31285756      -0.18062844       0.00000000 </v>
     <v>       0.31285756       0.18062844       0.00000000 </v>
     <v>       0.00000000       0.00000000       0.02860193 </v>
    </varray>
   </crystal>
   <varray name="positions" >
    <v>       0.66666700       0.33333300       0.10664700 </v>
    <v>       0.33333300       0.66666700       0.06198962 </v>
    <v>       0.33333300       0.66666700       0.15130538 </v>
   </varray>
  </structure>
  <varray name="forces" >
   <v>      -0.00000032       0.00007159      -0.03006614 </v>
   <v>      -0.00000027      -0.00003514       0.02037494 </v>
   <v>       0.00000059      -0.00003645       0.00969120 </v>
  </varray>
  <varray name="stress" >
   <v>      -0.63461395      -0.00000459       0.00000084 </v>
   <v>      -0.00000456      -0.63477564       0.00000135 </v>
   <v>       0.00000080       0.00000143       1.73860899 </v>
  </varray>
  <energy>
   <i name="e_fr_energy">    -21.75514528 </i>
   <i name="e_wo_entrp">    -21.75514528 </i>
   <i name="e_0_energy">     -0.00000000 </i>
  </energy>
  <time name="totalsc"> 2000.32 2000.85</time>
  <eigenvalues>
   <array>
    <dimension dim="1">band</dimension>
    <dimension dim="2">kpoint</dimension>
    <dimension dim="3">spin</dimension>
    <field>eigene</field>
    <field>occ</field>
    <set>
     <set comment="spin 1">
      <set comment="kpoint 1">
       <r>  -42.0184    1.0000 </r>
       <r>  -42.0184    1.0000 </r>
       <r>  -39.6517    1.0000 </r>
       <r>  -39.6517    1.0000 </r>
       <r>  -39.5157    1.0000 </r>
       <r>  -39.5156    1.0000 </r>
       <r>  -19.5039    1.0000 </r>
       <r>  -19.5039    1.0000 </r>
       <r>  -18.1979    1.0000 </r>
       <r>  -18.1978    1.0000 </r>
       <r>  -11.0312    1.0000 </r>
       <r>  -11.0312    1.0000 </r>
       <r>   -8.1089    1.0000 </r>
       <r>   -8.1089    1.0000 </r>
       <r>   -8.0459    1.0000 </r>
       <r>   -8.0459    1.0000 </r>
       <r>   -7.1702    1.0000 </r>
       <r>   -7.1702    1.0000 </r>
       <r>   -7.0126    1.0000 </r>
       <r>   -7.0126    1.0000 </r>
       <r>   -6.9287    1.0000 </r>
       <r>   -6.9287    1.0000 </r>
       <r>   -5.4229    1.0000 </r>
       <r>   -5.4229    1.0000 </r>
       <r>   -2.7598    0.0000 </r>
       <r>   -2.7598    0.0000 </r>
       <r>   -2.6814    0.0000 </r>
       <r>   -2.6814    0.0000 </r>
       <r>   -2.4761    0.0000 </r>
       <r>   -2.4761    0.0000 </r>
       <r>   -2.4754    0.0000 </r>
       <r>   -2.4754    0.0000 </r>
       <r>    0.2892    0.0000 </r>
       <r>    0.2892    0.0000 </r>
       <r>    0.8868    0.0000 </r>
       <r>    0.8868    0.0000 </r>
       <r>    1.7682    0.0000 </r>
       <r>    1.7807    0.0000 </r>
       <r>    2.3330    0.0000 </r>
       <r>    3.3964    0.0000 </r>
      </set>
      <set comment="kpoint 2">
       <r>  -42.0249    1.0000 </r>
       <r>  -42.0249    1.0000 </r>
       <r>  -39.6545    1.0000 </r>
       <r>  -39.6545    1.0000 </r>
       <r>  -39.5316    1.0000 </r>
       <r>  -39.5316    1.0000 </r>
       <r>  -19.4030    1.0000 </r>
       <r>  -19.4027    1.0000 </r>
       <r>  -18.1566    1.0000 </r>
       <r>  -18.1562    1.0000 </r>
       <r>  -10.9159    1.0000 </r>
       <r>  -10.9157    1.0000 </r>
       <r>   -8.3039    1.0000 </r>
       <r>   -8.3038    1.0000 </r>
       <r>   -7.9701    1.0000 </r>
       <r>   -7.9699    1.0000 </r>
       <r>   -7.6846    1.0000 </r>
       <r>   -7.6841    1.0000 </r>
       <r>   -7.1315    1.0000 </r>
       <r>   -7.1311    1.0000 </r>
       <r>   -6.6126    1.0000 </r>
       <r>   -6.6115    1.0000 </r>
       <r>   -5.4818    1.0000 </r>
       <r>   -5.4811    1.0000 </r>
       <r>   -2.8603    0.0000 </r>
       <r>   -2.8564    0.0000 </r>
       <r>   -2.7399    0.0000 </r>
       <r>   -2.7357    0.0000 </r>
       <r>   -2.6014    0.0000 </r>
       <r>   -2.5982    0.0000 </r>
       <r>   -2.5271    0.0000 </r>
       <r>   -2.5237    0.0000 </r>
       <r>    0.4838    0.0000 </r>
       <r>    0.4870    0.0000 </r>
       <r>    1.2890    0.0000 </r>
       <r>    1.2924    0.0000 </r>
       <r>    1.9098    0.0000 </r>
       <r>    1.9780    0.0000 </r>
       <r>    2.4727    0.0000 </r>
       <r>    2.9985    0.0000 </r>
      </set>
      <set comment="kpoint 3">
       <r>  -42.0430    1.0000 </r>
       <r>  -42.0429    1.0000 </r>
       <r>  -39.6661    1.0000 </r>
       <r>  -39.6661    1.0000 </r>
       <r>  -39.5702    1.0000 </r>
       <r>  -39.5702    1.0000 </r>
       <r>  -19.1159    1.0000 </r>
       <r>  -19.1153    1.0000 </r>
       <r>  -18.0392    1.0000 </r>
       <r>  -18.0384    1.0000 </r>
       <r>  -10.6251    1.0000 </r>
       <r>  -10.6248    1.0000 </r>
       <r>   -8.8187    1.0000 </r>
       <r>   -8.8181    1.0000 </r>
       <r>   -8.3317    1.0000 </r>
       <r>   -8.3309    1.0000 </r>
       <r>   -7.6778    1.0000 </r>
       <r>   -7.6763    1.0000 </r>
       <r>   -7.5091    1.0000 </r>
       <r>   -7.5074    1.0000 </r>
       <r>   -6.5211    1.0000 </r>
       <r>   -6.5199    1.0000 </r>
       <r>   -5.7292    1.0000 </r>
       <r>   -5.7280    1.0000 </r>
       <r>   -3.1536    0.0000 </r>
       <r>   -3.1522    0.0000 </r>
       <r>   -2.9012    0.0000 </r>
       <r>   -2.9000    0.0000 </r>
       <r>   -2.8484    0.0000 </r>
       <r>   -2.8478    0.0000 </r>
       <r>   -2.1384    0.0000 </r>
       <r>   -2.1377    0.0000 </r>
       <r>    0.8998    0.0000 </r>
       <r>    0.9024    0.0000 </r>
       <r>    2.1171    0.0000 </r>
       <r>    2.1200    0.0000 </r>
       <r>    2.3674    0.0000 </r>
       <r>    2.3704    0.0000 </r>
       <r>    2.9454    0.0000 </r>
       <r>    2.9700    0.0000 </r>
      </set>
      <set comment="kpoint 4">
       <r>  -42.0687    1.0000 </r>
       <r>  -42.0686    1.0000 </r>
       <r>  -39.6983    1.0000 </r>
       <r>  -39.6983    1.0000 </r>
       <r>  -39.6044    1.0000 </r>
       <r>  -39.6043    1.0000 </r>
       <r>  -18.6920    1.0000 </r>
       <r>  -18.6909    1.0000 </r>
       <r>  -17.8668    1.0000 </r>
       <r>  -17.8656    1.0000 </r>
       <r>  -10.4125    1.0000 </r>
       <r>  -10.4123    1.0000 </r>
       <r>   -9.2659    1.0000 </r>
       <r>   -9.2638    1.0000 </r>
       <r>   -8.9844    1.0000 </r>
       <r>   -8.9821    1.0000 </r>
       <r>   -7.9389    1.0000 </r>
       <r>   -7.9385    1.0000 </r>
       <r>   -7.2624    1.0000 </r>
       <r>   -7.2617    1.0000 </r>
       <r>   -6.7610    1.0000 </r>
       <r>   -6.7604    1.0000 </r>
       <r>   -6.1609    1.0000 </r>
       <r>   -6.1602    1.0000 </r>
       <r>   -3.2797    0.0000 </r>
       <r>   -3.2791    0.0000 </r>
       <r>   -3.1212    0.0000 </r>
       <r>   -3.1206    0.0000 </r>
       <r>   -2.5627    0.0000 </r>
       <r>   -2.5626    0.0000 </r>
       <r>   -1.7231    0.0000 </r>
       <r>   -1.7226    0.0000 </r>
       <r>    1.4645    0.0000 </r>
       <r>    1.4663    0.0000 </r>
       <r>    2.6047    0.0000 </r>
       <r>    2.6103    0.0000 </r>
       <r>    3.0231    0.0000 </r>
       <r>    3.1484    0.0000 </r>
       <r>    3.3983    0.0000 </r>
       <r>    3.7454    0.0000 </r>
      </set>
      <set comment="kpoint 5">
       <r>  -42.0955    1.0000 </r>
       <r>  -42.0954    1.0000 </r>
       <r>  -39.7479    1.0000 </r>
       <r>  -39.7479    1.0000 </r>
       <r>  -39.6185    1.0000 </r>
       <r>  -39.6185    1.0000 </r>
       <r>  -18.2180    1.0000 </r>
       <r>  -18.2166    1.0000 </r>
       <r>  -17.6774    1.0000 </r>
       <r>  -17.6759    1.0000 </r>
       <r>  -10.6510    1.0000 </r>
       <r>  -10.6509    1.0000 </r>
       <r>   -9.5905    1.0000 </r>
       <r>   -9.5876    1.0000 </r>
       <r>   -9.3513    1.0000 </r>
       <r>   -9.3481    1.0000 </r>
       <r>   -8.2985    1.0000 </r>
       <r>   -8.2983    1.0000 </r>
       <r>   -7.0660    1.0000 </r>
       <r>   -7.0656    1.0000 </r>
       <r>   -6.8390    1.0000 </r>
       <r>   -6.8389    1.0000 </r>
       <r>   -6.4048    1.0000 </r>
       <r>   -6.4044    1.0000 </r>
       <r>   -3.2909    0.0000 </r>
       <r>   -3.2907    0.0000 </r>
       <r>   -3.1179    0.0000 </r>
       <r>   -3.1174    0.0000 </r>
       <r>   -2.0663    0.0000 </r>
       <r>   -2.0661    0.0000 </r>
       <r>   -1.4179    0.0000 </r>
       <r>   -1.4175    0.0000 </r>
       <r>    2.0133    0.0000 </r>
       <r>    2.0142    0.0000 </r>
       <r>    2.4115    0.0000 </r>
       <r>    2.4175    0.0000 </r>
       <r>    2.7543    0.0000 </r>
       <r>    2.7589    0.0000 </r>
       <r>    3.3420    0.0000 </r>
       <r>    3.3648    0.0000 </r>
      </set>
      <set comment="kpoint 6">
       <r>  -42.1158    1.0000 </r>
       <r>  -42.1157    1.0000 </r>
       <r>  -39.7885    1.0000 </r>
       <r>  -39.7885    1.0000 </r>
       <r>  -39.6229    1.0000 </r>
       <r>  -39.6228    1.0000 </r>
       <r>  -17.8255    1.0000 </r>
       <r>  -17.8240    1.0000 </r>
       <r>  -17.5253    1.0000 </r>
       <r>  -17.5237    1.0000 </r>
       <r>  -11.0188    1.0000 </r>
       <r>  -11.0186    1.0000 </r>
       <r>  -10.0277    1.0000 </r>
       <r>  -10.0271    1.0000 </r>
       <r>   -9.4353    1.0000 </r>
       <r>   -9.4344    1.0000 </r>
       <r>   -8.5321    1.0000 </r>
       <r>   -8.5321    1.0000 </r>
       <r>   -7.2502    1.0000 </r>
       <r>   -7.2501    1.0000 </r>
       <r>   -6.5524    1.0000 </r>
       <r>   -6.5524    1.0000 </r>
       <r>   -6.2403    1.0000 </r>
       <r>   -6.2401    1.0000 </r>
       <r>   -3.3043    0.0000 </r>
       <r>   -3.3042    0.0000 </r>
       <r>   -2.8865    0.0000 </r>
       <r>   -2.8859    0.0000 </r>
       <r>   -1.6896    0.0000 </r>
       <r>   -1.6891    0.0000 </r>
       <r>   -1.2492    0.0000 </r>
       <r>   -1.2489    0.0000 </r>
       <r>    1.2225    0.0000 </r>
       <r>    1.2226    0.0000 </r>
       <r>    2.4577    0.0000 </r>
       <r>    2.4720    0.0000 </r>
       <r>    2.6990    0.0000 </r>
       <r>    2.7110    0.0000 </r>
       <r>    3.6638    0.0000 </r>
       <r>    3.7763    0.0000 </r>
      </set>
      <set comment="kpoint 7">
       <r>  -42.1234    1.0000 </r>
       <r>  -42.1233    1.0000 </r>
       <r>  -39.8037    1.0000 </r>
       <r>  -39.8037    1.0000 </r>
       <r>  -39.6238    1.0000 </r>
       <r>  -39.6238    1.0000 </r>
       <r>  -17.6680    1.0000 </r>
       <r>  -17.6680    1.0000 </r>
       <r>  -17.4655    1.0000 </r>
       <r>  -17.4654    1.0000 </r>
       <r>  -11.1750    1.0000 </r>
       <r>  -11.1750    1.0000 </r>
       <r>  -10.1897    1.0000 </r>
       <r>  -10.1897    1.0000 </r>
       <r>   -9.5043    1.0000 </r>
       <r>   -9.5043    1.0000 </r>
       <r>   -8.6126    1.0000 </r>
       <r>   -8.6126    1.0000 </r>
       <r>   -7.3106    1.0000 </r>
       <r>   -7.3105    1.0000 </r>
       <r>   -6.4508    1.0000 </r>
       <r>   -6.4508    1.0000 </r>
       <r>   -6.0795    1.0000 </r>
       <r>   -6.0795    1.0000 </r>
       <r>   -3.2835    0.0000 </r>
       <r>   -3.2834    0.0000 </r>
       <r>   -2.7572    0.0000 </r>
       <r>   -2.7572    0.0000 </r>
       <r>   -1.5625    0.0000 </r>
       <r>   -1.5624    0.0000 </r>
       <r>   -1.1971    0.0000 </r>
       <r>   -1.1971    0.0000 </r>
       <r>    0.7195    0.0000 </r>
       <r>    0.7196    0.0000 </r>
       <r>    2.4987    0.0000 </r>
       <r>    2.4987    0.0000 </r>
       <r>    2.8865    0.0000 </r>
       <r>    2.8865    0.0000 </r>
       <r>    3.7301    0.0000 </r>
       <r>    4.4749    0.0000 </r>
      </set>
      <set comment="kpoint 8">
       <r>  -42.1158    1.0000 </r>
       <r>  -42.1157    1.0000 </r>
       <r>  -39.7886    1.0000 </r>
       <r>  -39.7885    1.0000 </r>
       <r>  -39.6229    1.0000 </r>
       <r>  -39.6228    1.0000 </r>
       <r>  -17.8255    1.0000 </r>
       <r>  -17.8240    1.0000 </r>
       <r>  -17.5253    1.0000 </r>
       <r>  -17.5238    1.0000 </r>
       <r>  -11.0188    1.0000 </r>
       <r>  -11.0187    1.0000 </r>
       <r>  -10.0277    1.0000 </r>
       <r>  -10.0271    1.0000 </r>
       <r>   -9.4353    1.0000 </r>
       <r>   -9.4344    1.0000 </r>
       <r>   -8.5321    1.0000 </r>
       <r>   -8.5321    1.0000 </r>
       <r>   -7.2502    1.0000 </r>
       <r>   -7.2502    1.0000 </r>
       <r>   -6.5525    1.0000 </r>
       <r>   -6.5523    1.0000 </r>
       <r>   -6.2403    1.0000 </r>
       <r>   -6.2402    1.0000 </r>
       <r>   -3.3044    0.0000 </r>
       <r>   -3.3041    0.0000 </r>
       <r>   -2.8865    0.0000 </r>
       <r>   -2.8859    0.0000 </r>
       <r>   -1.6896    0.0000 </r>
       <r>   -1.6892    0.0000 </r>
       <r>   -1.2492    0.0000 </r>
       <r>   -1.2490    0.0000 </r>
       <r>    1.2225    0.0000 </r>
       <r>    1.2226    0.0000 </r>
       <r>    2.4577    0.0000 </r>
       <r>    2.4720    0.0000 </r>
       <r>    2.6990    0.0000 </r>
       <r>    2.7110    0.0000 </r>
       <r>    3.6477    0.0000 </r>
       <r>    3.9975    0.0000 </r>
      </set>
      <set comment="kpoint 9">
       <r>  -42.0954    1.0000 </r>
       <r>  -42.0954    1.0000 </r>
       <r>  -39.7479    1.0000 </r>
       <r>  -39.7478    1.0000 </r>
       <r>  -39.6185    1.0000 </r>
       <r>  -39.6185    1.0000 </r>
       <r>  -18.2180    1.0000 </r>
       <r>  -18.2165    1.0000 </r>
       <r>  -17.6774    1.0000 </r>
       <r>  -17.6759    1.0000 </r>
       <r>  -10.6510    1.0000 </r>
       <r>  -10.6509    1.0000 </r>
       <r>   -9.5905    1.0000 </r>
       <r>   -9.5876    1.0000 </r>
       <r>   -9.3513    1.0000 </r>
       <r>   -9.3481    1.0000 </r>
       <r>   -8.2985    1.0000 </r>
       <r>   -8.2983    1.0000 </r>
       <r>   -7.0660    1.0000 </r>
       <r>   -7.0657    1.0000 </r>
       <r>   -6.8390    1.0000 </r>
       <r>   -6.8388    1.0000 </r>
       <r>   -6.4047    1.0000 </r>
       <r>   -6.4045    1.0000 </r>
       <r>   -3.2910    0.0000 </r>
       <r>   -3.2906    0.0000 </r>
       <r>   -3.1179    0.0000 </r>
       <r>   -3.1173    0.0000 </r>
       <r>   -2.0663    0.0000 </r>
       <r>   -2.0661    0.0000 </r>
       <r>   -1.4179    0.0000 </r>
       <r>   -1.4176    0.0000 </r>
       <r>    2.0132    0.0000 </r>
       <r>    2.0142    0.0000 </r>
       <r>    2.4115    0.0000 </r>
       <r>    2.4175    0.0000 </r>
       <r>    2.7543    0.0000 </r>
       <r>    2.7589    0.0000 </r>
       <r>    3.3420    0.0000 </r>
       <r>    3.3648    0.0000 </r>
      </set>
      <set comment="kpoint 10">
       <r>  -42.0686    1.0000 </r>
       <r>  -42.0686    1.0000 </r>
       <r>  -39.6984    1.0000 </r>
       <r>  -39.6983    1.0000 </r>
       <r>  -39.6044    1.0000 </r>
       <r>  -39.6043    1.0000 </r>
       <r>  -18.6920    1.0000 </r>
       <r>  -18.6909    1.0000 </r>
       <r>  -17.8667    1.0000 </r>
       <r>  -17.8656    1.0000 </r>
       <r>  -10.4125    1.0000 </r>
       <r>  -10.4123    1.0000 </r>
       <r>   -9.2659    1.0000 </r>
       <r>   -9.2638    1.0000 </r>
       <r>   -8.9844    1.0000 </r>
       <r>   -8.9821    1.0000 </r>
       <r>   -7.9389    1.0000 </r>
       <r>   -7.9384    1.0000 </r>
       <r>   -7.2624    1.0000 </r>
       <r>   -7.2617    1.0000 </r>
       <r>   -6.7610    1.0000 </r>
       <r>   -6.7604    1.0000 </r>
       <r>   -6.1609    1.0000 </r>
       <r>   -6.1602    1.0000 </r>
       <r>   -3.2797    0.0000 </r>
       <r>   -3.2791    0.0000 </r>
       <r>   -3.1212    0.0000 </r>
       <r>   -3.1206    0.0000 </r>
       <r>   -2.5628    0.0000 </r>
       <r>   -2.5625    0.0000 </r>
       <r>   -1.7231    0.0000 </r>
       <r>   -1.7226    0.0000 </r>
       <r>    1.4644    0.0000 </r>
       <r>    1.4663    0.0000 </r>
       <r>    2.6048    0.0000 </r>
       <r>    2.6103    0.0000 </r>
       <r>    3.0437    0.0000 </r>
       <r>    3.1391    0.0000 </r>
       <r>    3.4320    0.0000 </r>
       <r>    3.8667    0.0000 </r>
      </set>
      <set comment="kpoint 11">
       <r>  -42.0430    1.0000 </r>
       <r>  -42.0430    1.0000 </r>
       <r>  -39.6662    1.0000 </r>
       <r>  -39.6661    1.0000 </r>
       <r>  -39.5703    1.0000 </r>
       <r>  -39.5702    1.0000 </r>
       <r>  -19.1160    1.0000 </r>
       <r>  -19.1152    1.0000 </r>
       <r>  -18.0392    1.0000 </r>
       <r>  -18.0384    1.0000 </r>
       <r>  -10.6251    1.0000 </r>
       <r>  -10.6248    1.0000 </r>
       <r>   -8.8187    1.0000 </r>
       <r>   -8.8181    1.0000 </r>
       <r>   -8.3317    1.0000 </r>
       <r>   -8.3309    1.0000 </r>
       <r>   -7.6778    1.0000 </r>
       <r>   -7.6763    1.0000 </r>
       <r>   -7.5091    1.0000 </r>
       <r>   -7.5074    1.0000 </r>
       <r>   -6.5210    1.0000 </r>
       <r>   -6.5199    1.0000 </r>
       <r>   -5.7292    1.0000 </r>
       <r>   -5.7280    1.0000 </r>
       <r>   -3.1536    0.0000 </r>
       <r>   -3.1522    0.0000 </r>
       <r>   -2.9012    0.0000 </r>
       <r>   -2.9000    0.0000 </r>
       <r>   -2.8484    0.0000 </r>
       <r>   -2.8478    0.0000 </r>
       <r>   -2.1384    0.0000 </r>
       <r>   -2.1377    0.0000 </r>
       <r>    0.8998    0.0000 </r>
       <r>    0.9024    0.0000 </r>
       <r>    2.1171    0.0000 </r>
       <r>    2.1200    0.0000 </r>
       <r>    2.3675    0.0000 </r>
       <r>    2.3717    0.0000 </r>
       <r>    2.9504    0.0000 </r>
       <r>    3.0610    0.0000 </r>
      </set>
      <set comment="kpoint 12">
       <r>  -42.0249    1.0000 </r>
       <r>  -42.0249    1.0000 </r>
       <r>  -39.6545    1.0000 </r>
       <r>  -39.6545    1.0000 </r>
       <r>  -39.5316    1.0000 </r>
       <r>  -39.5316    1.0000 </r>
       <r>  -19.4030    1.0000 </r>
       <r>  -19.4026    1.0000 </r>
       <r>  -18.1566    1.0000 </r>
       <r>  -18.1563    1.0000 </r>
       <r>  -10.9159    1.0000 </r>
       <r>  -10.9157    1.0000 </r>
       <r>   -8.3039    1.0000 </r>
       <r>   -8.3037    1.0000 </r>
       <r>   -7.9701    1.0000 </r>
       <r>   -7.9699    1.0000 </r>
       <r>   -7.6846    1.0000 </r>
       <r>   -7.6841    1.0000 </r>
       <r>   -7.1315    1.0000 </r>
       <r>   -7.1311    1.0000 </r>
       <r>   -6.6126    1.0000 </r>
       <r>   -6.6116    1.0000 </r>
       <r>   -5.4818    1.0000 </r>
       <r>   -5.4811    1.0000 </r>
       <r>   -2.8603    0.0000 </r>
       <r>   -2.8564    0.0000 </r>
       <r>   -2.7399    0.0000 </r>
       <r>   -2.7357    0.0000 </r>
       <r>   -2.6014    0.0000 </r>
       <r>   -2.5982    0.0000 </r>
       <r>   -2.5271    0.0000 </r>
       <r>   -2.5237    0.0000 </r>
       <r>    0.4838    0.0000 </r>
       <r>    0.4870    0.0000 </r>
       <r>    1.2891    0.0000 </r>
       <r>    1.2924    0.0000 </r>
       <r>    1.9100    0.0000 </r>
       <r>    1.9285    0.0000 </r>
       <r>    2.4728    0.0000 </r>
       <r>    2.7659    0.0000 </r>
      </set>
      <set comment="kpoint 13">
       <r>  -42.0249    1.0000 </r>
       <r>  -42.0249    1.0000 </r>
       <r>  -39.6545    1.0000 </r>
       <r>  -39.6545    1.0000 </r>
       <r>  -39.5316    1.0000 </r>
       <r>  -39.5316    1.0000 </r>
       <r>  -19.4030    1.0000 </r>
       <r>  -19.4027    1.0000 </r>
       <r>  -18.1566    1.0000 </r>
       <r>  -18.1562    1.0000 </r>
       <r>  -10.9159    1.0000 </r>
       <r>  -10.9157    1.0000 </r>
       <r>   -8.3039    1.0000 </r>
       <r>   -8.3037    1.0000 </r>
       <r>   -7.9701    1.0000 </r>
       <r>   -7.9699    1.0000 </r>
       <r>   -7.6846    1.0000 </r>
       <r>   -7.6841    1.0000 </r>
       <r>   -7.1315    1.0000 </r>
       <r>   -7.1311    1.0000 </r>
       <r>   -6.6126    1.0000 </r>
       <r>   -6.6116    1.0000 </r>
       <r>   -5.4818    1.0000 </r>
       <r>   -5.4811    1.0000 </r>
       <r>   -2.8603    0.0000 </r>
       <r>   -2.8564    0.0000 </r>
       <r>   -2.7399    0.0000 </r>
       <r>   -2.7357    0.0000 </r>
       <r>   -2.6014    0.0000 </r>
       <r>   -2.5982    0.0000 </r>
       <r>   -2.5271    0.0000 </r>
       <r>   -2.5237    0.0000 </r>
       <r>    0.4838    0.0000 </r>
       <r>    0.4869    0.0000 </r>
       <r>    1.2891    0.0000 </r>
       <r>    1.2924    0.0000 </r>
       <r>    1.9098    0.0000 </r>
       <r>    1.9464    0.0000 </r>
       <r>    2.4729    0.0000 </r>
       <r>    2.9206    0.0000 </r>
      </set>
      <set comment="kpoint 14">
       <r>  -42.0377    1.0000 </r>
       <r>  -42.0366    1.0000 </r>
       <r>  -39.6617    1.0000 </r>
       <r>  -39.6610    1.0000 </r>
       <r>  -39.5604    1.0000 </r>
       <r>  -39.5581    1.0000 </r>
       <r>  -19.2097    1.0000 </r>
       <r>  -19.2074    1.0000 </r>
       <r>  -18.0771    1.0000 </r>
       <r>  -18.0764    1.0000 </r>
       <r>  -10.7104    1.0000 </r>
       <r>  -10.7078    1.0000 </r>
       <r>   -8.6708    1.0000 </r>
       <r>   -8.6594    1.0000 </r>
       <r>   -8.1156    1.0000 </r>
       <r>   -8.1150    1.0000 </r>
       <r>   -7.7895    1.0000 </r>
       <r>   -7.7643    1.0000 </r>
       <r>   -7.5048    1.0000 </r>
       <r>   -7.5002    1.0000 </r>
       <r>   -6.4358    1.0000 </r>
       <r>   -6.4121    1.0000 </r>
       <r>   -5.6381    1.0000 </r>
       <r>   -5.6324    1.0000 </r>
       <r>   -3.0694    0.0000 </r>
       <r>   -3.0590    0.0000 </r>
       <r>   -3.0083    0.0000 </r>
       <r>   -2.9558    0.0000 </r>
       <r>   -2.7993    0.0000 </r>
       <r>   -2.7747    0.0000 </r>
       <r>   -2.2349    0.0000 </r>
       <r>   -2.1865    0.0000 </r>
       <r>    0.7771    0.0000 </r>
       <r>    0.7802    0.0000 </r>
       <r>    1.9442    0.0000 </r>
       <r>    1.9490    0.0000 </r>
       <r>    2.2139    0.0000 </r>
       <r>    2.2246    0.0000 </r>
       <r>    2.7671    0.0000 </r>
       <r>    2.7790    0.0000 </r>
      </set>
      <set comment="kpoint 15">
       <r>  -42.0605    1.0000 </r>
       <r>  -42.0575    1.0000 </r>
       <r>  -39.6821    1.0000 </r>
       <r>  -39.6815    1.0000 </r>
       <r>  -39.5995    1.0000 </r>
       <r>  -39.5946    1.0000 </r>
       <r>  -18.8551    1.0000 </r>
       <r>  -18.8487    1.0000 </r>
       <r>  -17.9312    1.0000 </r>
       <r>  -17.9301    1.0000 </r>
       <r>  -10.4314    1.0000 </r>
       <r>  -10.4219    1.0000 </r>
       <r>   -9.1339    1.0000 </r>
       <r>   -9.1299    1.0000 </r>
       <r>   -8.6610    1.0000 </r>
       <r>   -8.6502    1.0000 </r>
       <r>   -8.0393    1.0000 </r>
       <r>   -8.0328    1.0000 </r>
       <r>   -7.4880    1.0000 </r>
       <r>   -7.4510    1.0000 </r>
       <r>   -6.4699    1.0000 </r>
       <r>   -6.4425    1.0000 </r>
       <r>   -6.0004    1.0000 </r>
       <r>   -5.9752    1.0000 </r>
       <r>   -3.3602    0.0000 </r>
       <r>   -3.3265    0.0000 </r>
       <r>   -3.0220    0.0000 </r>
       <r>   -3.0070    0.0000 </r>
       <r>   -2.9245    0.0000 </r>
       <r>   -2.8603    0.0000 </r>
       <r>   -1.7757    0.0000 </r>
       <r>   -1.7298    0.0000 </r>
       <r>    1.2723    0.0000 </r>
       <r>    1.2755    0.0000 </r>
       <r>    2.5871    0.0000 </r>
       <r>    2.6212    0.0000 </r>
       <r>    2.8010    0.0000 </r>
       <r>    2.8389    0.0000 </r>
       <r>    3.4572    0.0000 </r>
       <r>    4.1805    0.0000 </r>
      </set>
      <set comment="kpoint 16">
       <r>  -42.0878    1.0000 </r>
       <r>  -42.0826    1.0000 </r>
       <r>  -39.7257    1.0000 </r>
       <r>  -39.7218    1.0000 </r>
       <r>  -39.6220    1.0000 </r>
       <r>  -39.6183    1.0000 </r>
       <r>  -18.4055    1.0000 </r>
       <r>  -18.3933    1.0000 </r>
       <r>  -17.7474    1.0000 </r>
       <r>  -17.7457    1.0000 </r>
       <r>  -10.4533    1.0000 </r>
       <r>  -10.4406    1.0000 </r>
       <r>   -9.3339    1.0000 </r>
       <r>   -9.3164    1.0000 </r>
       <r>   -9.2989    1.0000 </r>
       <r>   -9.2813    1.0000 </r>
       <r>   -8.3940    1.0000 </r>
       <r>   -8.3836    1.0000 </r>
       <r>   -7.2480    1.0000 </r>
       <r>   -7.1868    1.0000 </r>
       <r>   -6.7567    1.0000 </r>
       <r>   -6.7351    1.0000 </r>
       <r>   -6.3245    1.0000 </r>
       <r>   -6.2619    1.0000 </r>
       <r>   -3.4507    0.0000 </r>
       <r>   -3.3835    0.0000 </r>
       <r>   -3.0780    0.0000 </r>
       <r>   -3.0461    0.0000 </r>
       <r>   -2.5237    0.0000 </r>
       <r>   -2.4756    0.0000 </r>
       <r>   -1.4082    0.0000 </r>
       <r>   -1.3719    0.0000 </r>
       <r>    1.8932    0.0000 </r>
       <r>    1.8997    0.0000 </r>
       <r>    2.9123    0.0000 </r>
       <r>    2.9193    0.0000 </r>
       <r>    3.1231    0.0000 </r>
       <r>    3.1291    0.0000 </r>
       <r>    3.4501    0.0000 </r>
       <r>    3.5084    0.0000 </r>
      </set>
      <set comment="kpoint 17">
       <r>  -42.1123    1.0000 </r>
       <r>  -42.1051    1.0000 </r>
       <r>  -39.7737    1.0000 </r>
       <r>  -39.7652    1.0000 </r>
       <r>  -39.6297    1.0000 </r>
       <r>  -39.6279    1.0000 </r>
       <r>  -17.9677    1.0000 </r>
       <r>  -17.9491    1.0000 </r>
       <r>  -17.5717    1.0000 </r>
       <r>  -17.5695    1.0000 </r>
       <r>  -10.7833    1.0000 </r>
       <r>  -10.7831    1.0000 </r>
       <r>   -9.8918    1.0000 </r>
       <r>   -9.8842    1.0000 </r>
       <r>   -9.3354    1.0000 </r>
       <r>   -9.3347    1.0000 </r>
       <r>   -8.5600    1.0000 </r>
       <r>   -8.5501    1.0000 </r>
       <r>   -7.1435    1.0000 </r>
       <r>   -7.0902    1.0000 </r>
       <r>   -7.0480    1.0000 </r>
       <r>   -7.0309    1.0000 </r>
       <r>   -6.2442    1.0000 </r>
       <r>   -6.1566    1.0000 </r>
       <r>   -3.3307    0.0000 </r>
       <r>   -3.2967    0.0000 </r>
       <r>   -2.9714    0.0000 </r>
       <r>   -2.9598    0.0000 </r>
       <r>   -2.0338    0.0000 </r>
       <r>   -1.9996    0.0000 </r>
       <r>   -1.2460    0.0000 </r>
       <r>   -1.2223    0.0000 </r>
       <r>    1.8409    0.0000 </r>
       <r>    1.8470    0.0000 </r>
       <r>    2.5885    0.0000 </r>
       <r>    2.5976    0.0000 </r>
       <r>    2.9519    0.0000 </r>
       <r>    2.9629    0.0000 </r>
       <r>    3.6762    0.0000 </r>
       <r>    3.7310    0.0000 </r>
      </set>
      <set comment="kpoint 18">
       <r>  -42.1268    1.0000 </r>
       <r>  -42.1184    1.0000 </r>
       <r>  -39.8027    1.0000 </r>
       <r>  -39.7916    1.0000 </r>
       <r>  -39.6321    1.0000 </r>
       <r>  -39.6312    1.0000 </r>
       <r>  -17.6864    1.0000 </r>
       <r>  -17.6632    1.0000 </r>
       <r>  -17.4612    1.0000 </r>
       <r>  -17.4592    1.0000 </r>
       <r>  -11.0440    1.0000 </r>
       <r>  -11.0324    1.0000 </r>
       <r>  -10.2290    1.0000 </r>
       <r>  -10.2236    1.0000 </r>
       <r>   -9.4530    1.0000 </r>
       <r>   -9.4455    1.0000 </r>
       <r>   -8.6176    1.0000 </r>
       <r>   -8.6081    1.0000 </r>
       <r>   -7.2768    1.0000 </r>
       <r>   -7.2717    1.0000 </r>
       <r>   -6.9878    1.0000 </r>
       <r>   -6.9205    1.0000 </r>
       <r>   -6.0116    1.0000 </r>
       <r>   -5.9139    1.0000 </r>
       <r>   -3.2800    0.0000 </r>
       <r>   -3.2394    0.0000 </r>
       <r>   -2.8061    0.0000 </r>
       <r>   -2.7114    0.0000 </r>
       <r>   -1.6385    0.0000 </r>
       <r>   -1.6113    0.0000 </r>
       <r>   -1.3165    0.0000 </r>
       <r>   -1.2997    0.0000 </r>
       <r>    0.9680    0.0000 </r>
       <r>    0.9843    0.0000 </r>
       <r>    2.9242    0.0000 </r>
       <r>    2.9397    0.0000 </r>
       <r>    3.1296    0.0000 </r>
       <r>    3.1482    0.0000 </r>
       <r>    3.8179    0.0000 </r>
       <r>    4.6791    0.0000 </r>
      </set>
      <set comment="kpoint 19">
       <r>  -42.1268    1.0000 </r>
       <r>  -42.1184    1.0000 </r>
       <r>  -39.8027    1.0000 </r>
       <r>  -39.7916    1.0000 </r>
       <r>  -39.6321    1.0000 </r>
       <r>  -39.6312    1.0000 </r>
       <r>  -17.6864    1.0000 </r>
       <r>  -17.6632    1.0000 </r>
       <r>  -17.4612    1.0000 </r>
       <r>  -17.4593    1.0000 </r>
       <r>  -11.0440    1.0000 </r>
       <r>  -11.0324    1.0000 </r>
       <r>  -10.2290    1.0000 </r>
       <r>  -10.2236    1.0000 </r>
       <r>   -9.4530    1.0000 </r>
       <r>   -9.4455    1.0000 </r>
       <r>   -8.6176    1.0000 </r>
       <r>   -8.6081    1.0000 </r>
       <r>   -7.2768    1.0000 </r>
       <r>   -7.2717    1.0000 </r>
       <r>   -6.9878    1.0000 </r>
       <r>   -6.9205    1.0000 </r>
       <r>   -6.0116    1.0000 </r>
       <r>   -5.9139    1.0000 </r>
       <r>   -3.2800    0.0000 </r>
       <r>   -3.2394    0.0000 </r>
       <r>   -2.8061    0.0000 </r>
       <r>   -2.7114    0.0000 </r>
       <r>   -1.6384    0.0000 </r>
       <r>   -1.6113    0.0000 </r>
       <r>   -1.3166    0.0000 </r>
       <r>   -1.2998    0.0000 </r>
       <r>    0.9680    0.0000 </r>
       <r>    0.9843    0.0000 </r>
       <r>    2.9242    0.0000 </r>
       <r>    2.9397    0.0000 </r>
       <r>    3.1296    0.0000 </r>
       <r>    3.1483    0.0000 </r>
       <r>    3.8041    0.0000 </r>
       <r>    4.4873    0.0000 </r>
      </set>
      <set comment="kpoint 20">
       <r>  -42.1123    1.0000 </r>
       <r>  -42.1051    1.0000 </r>
       <r>  -39.7737    1.0000 </r>
       <r>  -39.7652    1.0000 </r>
       <r>  -39.6297    1.0000 </r>
       <r>  -39.6279    1.0000 </r>
       <r>  -17.9677    1.0000 </r>
       <r>  -17.9491    1.0000 </r>
       <r>  -17.5716    1.0000 </r>
       <r>  -17.5695    1.0000 </r>
       <r>  -10.7833    1.0000 </r>
       <r>  -10.7831    1.0000 </r>
       <r>   -9.8918    1.0000 </r>
       <r>   -9.8843    1.0000 </r>
       <r>   -9.3354    1.0000 </r>
       <r>   -9.3346    1.0000 </r>
       <r>   -8.5600    1.0000 </r>
       <r>   -8.5501    1.0000 </r>
       <r>   -7.1436    1.0000 </r>
       <r>   -7.0902    1.0000 </r>
       <r>   -7.0480    1.0000 </r>
       <r>   -7.0309    1.0000 </r>
       <r>   -6.2442    1.0000 </r>
       <r>   -6.1566    1.0000 </r>
       <r>   -3.3307    0.0000 </r>
       <r>   -3.2967    0.0000 </r>
       <r>   -2.9714    0.0000 </r>
       <r>   -2.9598    0.0000 </r>
       <r>   -2.0337    0.0000 </r>
       <r>   -1.9996    0.0000 </r>
       <r>   -1.2460    0.0000 </r>
       <r>   -1.2223    0.0000 </r>
       <r>    1.8409    0.0000 </r>
       <r>    1.8470    0.0000 </r>
       <r>    2.5885    0.0000 </r>
       <r>    2.5976    0.0000 </r>
       <r>    2.9519    0.0000 </r>
       <r>    2.9629    0.0000 </r>
       <r>    3.6640    0.0000 </r>
       <r>    3.6890    0.0000 </r>
      </set>
      <set comment="kpoint 21">
       <r>  -42.0878    1.0000 </r>
       <r>  -42.0826    1.0000 </r>
       <r>  -39.7257    1.0000 </r>
       <r>  -39.7218    1.0000 </r>
       <r>  -39.6220    1.0000 </r>
       <r>  -39.6183    1.0000 </r>
       <r>  -18.4055    1.0000 </r>
       <r>  -18.3933    1.0000 </r>
       <r>  -17.7474    1.0000 </r>
       <r>  -17.7457    1.0000 </r>
       <r>  -10.4533    1.0000 </r>
       <r>  -10.4406    1.0000 </r>
       <r>   -9.3339    1.0000 </r>
       <r>   -9.3164    1.0000 </r>
       <r>   -9.2989    1.0000 </r>
       <r>   -9.2813    1.0000 </r>
       <r>   -8.3940    1.0000 </r>
       <r>   -8.3836    1.0000 </r>
       <r>   -7.2480    1.0000 </r>
       <r>   -7.1868    1.0000 </r>
       <r>   -6.7567    1.0000 </r>
       <r>   -6.7351    1.0000 </r>
       <r>   -6.3244    1.0000 </r>
       <r>   -6.2619    1.0000 </r>
       <r>   -3.4508    0.0000 </r>
       <r>   -3.3835    0.0000 </r>
       <r>   -3.0780    0.0000 </r>
       <r>   -3.0461    0.0000 </r>
       <r>   -2.5237    0.0000 </r>
       <r>   -2.4756    0.0000 </r>
       <r>   -1.4082    0.0000 </r>
       <r>   -1.3719    0.0000 </r>
       <r>    1.8932    0.0000 </r>
       <r>    1.8997    0.0000 </r>
       <r>    2.9123    0.0000 </r>
       <r>    2.9193    0.0000 </r>
       <r>    3.1258    0.0000 </r>
       <r>    3.1376    0.0000 </r>
       <r>    3.4263    0.0000 </r>
       <r>    3.5111    0.0000 </r>
      </set>
      <set comment="kpoint 22">
       <r>  -42.0605    1.0000 </r>
       <r>  -42.0575    1.0000 </r>
       <r>  -39.6821    1.0000 </r>
       <r>  -39.6815    1.0000 </r>
       <r>  -39.5995    1.0000 </r>
       <r>  -39.5946    1.0000 </r>
       <r>  -18.8551    1.0000 </r>
       <r>  -18.8487    1.0000 </r>
       <r>  -17.9312    1.0000 </r>
       <r>  -17.9301    1.0000 </r>
       <r>  -10.4314    1.0000 </r>
       <r>  -10.4219    1.0000 </r>
       <r>   -9.1339    1.0000 </r>
       <r>   -9.1299    1.0000 </r>
       <r>   -8.6610    1.0000 </r>
       <r>   -8.6502    1.0000 </r>
       <r>   -8.0393    1.0000 </r>
       <r>   -8.0328    1.0000 </r>
       <r>   -7.4880    1.0000 </r>
       <r>   -7.4510    1.0000 </r>
       <r>   -6.4699    1.0000 </r>
       <r>   -6.4425    1.0000 </r>
       <r>   -6.0004    1.0000 </r>
       <r>   -5.9752    1.0000 </r>
       <r>   -3.3602    0.0000 </r>
       <r>   -3.3266    0.0000 </r>
       <r>   -3.0220    0.0000 </r>
       <r>   -3.0070    0.0000 </r>
       <r>   -2.9245    0.0000 </r>
       <r>   -2.8603    0.0000 </r>
       <r>   -1.7757    0.0000 </r>
       <r>   -1.7298    0.0000 </r>
       <r>    1.2723    0.0000 </r>
       <r>    1.2756    0.0000 </r>
       <r>    2.5897    0.0000 </r>
       <r>    2.6148    0.0000 </r>
       <r>    2.8721    0.0000 </r>
       <r>    3.0111    0.0000 </r>
       <r>    3.4897    0.0000 </r>
       <r>    4.0834    0.0000 </r>
      </set>
      <set comment="kpoint 23">
       <r>  -42.0377    1.0000 </r>
       <r>  -42.0366    1.0000 </r>
       <r>  -39.6617    1.0000 </r>
       <r>  -39.6610    1.0000 </r>
       <r>  -39.5604    1.0000 </r>
       <r>  -39.5581    1.0000 </r>
       <r>  -19.2097    1.0000 </r>
       <r>  -19.2074    1.0000 </r>
       <r>  -18.0771    1.0000 </r>
       <r>  -18.0764    1.0000 </r>
       <r>  -10.7104    1.0000 </r>
       <r>  -10.7078    1.0000 </r>
       <r>   -8.6708    1.0000 </r>
       <r>   -8.6594    1.0000 </r>
       <r>   -8.1156    1.0000 </r>
       <r>   -8.1149    1.0000 </r>
       <r>   -7.7895    1.0000 </r>
       <r>   -7.7643    1.0000 </r>
       <r>   -7.5048    1.0000 </r>
       <r>   -7.5002    1.0000 </r>
       <r>   -6.4358    1.0000 </r>
       <r>   -6.4121    1.0000 </r>
       <r>   -5.6381    1.0000 </r>
       <r>   -5.6324    1.0000 </r>
       <r>   -3.0694    0.0000 </r>
       <r>   -3.0590    0.0000 </r>
       <r>   -3.0083    0.0000 </r>
       <r>   -2.9558    0.0000 </r>
       <r>   -2.7993    0.0000 </r>
       <r>   -2.7747    0.0000 </r>
       <r>   -2.2348    0.0000 </r>
       <r>   -2.1865    0.0000 </r>
       <r>    0.7770    0.0000 </r>
       <r>    0.7803    0.0000 </r>
       <r>    1.9443    0.0000 </r>
       <r>    1.9490    0.0000 </r>
       <r>    2.2138    0.0000 </r>
       <r>    2.2164    0.0000 </r>
       <r>    2.7651    0.0000 </r>
       <r>    2.7714    0.0000 </r>
      </set>
      <set comment="kpoint 24">
       <r>  -42.0249    1.0000 </r>
       <r>  -42.0249    1.0000 </r>
       <r>  -39.6545    1.0000 </r>
       <r>  -39.6545    1.0000 </r>
       <r>  -39.5316    1.0000 </r>
       <r>  -39.5316    1.0000 </r>
       <r>  -19.4030    1.0000 </r>
       <r>  -19.4026    1.0000 </r>
       <r>  -18.1566    1.0000 </r>
       <r>  -18.1562    1.0000 </r>
       <r>  -10.9159    1.0000 </r>
[...]
       <r>    -7.0935     0.0000     0.0000 </r>
       <r>    -6.9177     0.0000     0.0000 </r>
       <r>    -6.7419     0.0000     0.0000 </r>
       <r>    -6.5660     0.0000     0.0000 </r>
       <r>    -6.3902     0.0000     0.0000 </r>
       <r>    -6.2144     0.0000     0.0000 </r>
       <r>    -6.0386     0.0000     0.0000 </r>
       <r>    -5.8628     0.0000     0.0000 </r>
       <r>    -5.6870     0.0000     0.0000 </r>
       <r>    -5.5112     0.0000     0.0000 </r>
       <r>    -5.3354     0.0000     0.0000 </r>
       <r>    -5.1596     0.0000     0.0000 </r>
       <r>    -4.9837     0.0000     0.0000 </r>
       <r>    -4.8079     0.0000     0.0000 </r>
       <r>    -4.6321     0.0000     0.0000 </r>
       <r>    -4.4563     0.0000     0.0000 </r>
       <r>    -4.2805     0.0000     0.0000 </r>
       <r>    -4.1047     0.0000     0.0000 </r>
       <r>    -3.9289     0.0000     0.0000 </r>
       <r>    -3.7531     0.0000     0.0000 </r>
       <r>    -3.5773     0.0000     0.0000 </r>
       <r>    -3.4015     0.0000     0.0000 </r>
       <r>    -3.2256     0.0000     0.0000 </r>
       <r>    -3.0498     0.0000     0.0000 </r>
       <r>    -2.8740     0.0000     0.0000 </r>
       <r>    -2.6982     0.0000     0.0000 </r>
       <r>    -2.5224     0.0000     0.0000 </r>
       <r>    -2.3466     0.0000     0.0000 </r>
       <r>    -2.1708     0.0000     0.0000 </r>
       <r>    -1.9950     0.0000     0.0000 </r>
       <r>    -1.8192     0.0000     0.0000 </r>
       <r>    -1.6433     0.0000     0.0000 </r>
       <r>    -1.4675     0.0000     0.0000 </r>
       <r>    -1.2917     0.0000     0.0000 </r>
       <r>    -1.1159     0.0000     0.0000 </r>
       <r>    -0.9401     0.0000     0.0000 </r>
       <r>    -0.7643     0.0000     0.0000 </r>
       <r>    -0.5885     0.0000     0.0000 </r>
       <r>    -0.4127     0.0000     0.0000 </r>
       <r>    -0.2369     0.0000     0.0000 </r>
       <r>    -0.0611     0.0000     0.0000 </r>
       <r>     0.1148     0.0000     0.0000 </r>
       <r>     0.2906     0.0000     0.0000 </r>
       <r>     0.4664     0.0000     0.0000 </r>
       <r>     0.6422     0.0000     0.0000 </r>
       <r>     0.8180     0.0000     0.0000 </r>
       <r>     0.9938     0.0000     0.0000 </r>
       <r>     1.1696     0.0000     0.0000 </r>
       <r>     1.3454     0.0000     0.0000 </r>
       <r>     1.5212     0.0000     0.0000 </r>
       <r>     1.6970     0.0000     0.0000 </r>
       <r>     1.8729     0.0000     0.0000 </r>
       <r>     2.0487     0.0000     0.0000 </r>
       <r>     2.2245     0.0000     0.0000 </r>
       <r>     2.4003     0.0000     0.0000 </r>
       <r>     2.5761     0.0000     0.0000 </r>
       <r>     2.7519     0.0000     0.0000 </r>
       <r>     2.9277     0.0000     0.0000 </r>
       <r>     3.1035     0.0000     0.0000 </r>
       <r>     3.2793     0.0000     0.0000 </r>
       <r>     3.4552     0.0000     0.0000 </r>
       <r>     3.6310     0.0000     0.0000 </r>
       <r>     3.8068     0.0000     0.0000 </r>
       <r>     3.9826     0.0000     0.0000 </r>
       <r>     4.1584     0.0000     0.0000 </r>
       <r>     4.3342     0.0000     0.0000 </r>
       <r>     4.5100     0.0000     0.0000 </r>
       <r>     4.6858     0.0000     0.0000 </r>
       <r>     4.8616     0.0000     0.0000 </r>
       <r>     5.0374     0.0000     0.0000 </r>
       <r>     5.2133     0.0000     0.0000 </r>
       <r>     5.3891     0.0000     0.0000 </r>
       <r>     5.5649     0.0000     0.0000 </r>
       <r>     5.7407     0.0000     0.0000 </r>
       <r>     5.9165     0.0000     0.0000 </r>
       <r>     6.0923     0.0000     0.0000 </r>
       <r>     6.2681     0.0000     0.0000 </r>
       <r>     6.4439     0.0000     0.0000 </r>
       <r>     6.6197     0.0000     0.0000 </r>
       <r>     6.7956     0.0000     0.0000 </r>
       <r>     6.9714     0.0000     0.0000 </r>
       <r>     7.1472     0.0000     0.0000 </r>
       <r>     7.3230     0.0000     0.0000 </r>
       <r>     7.4988     0.0000     0.0000 </r>
       <r>     7.6746     0.0000     0.0000 </r>
       <r>     7.8504     0.0000     0.0000 </r>
       <r>     8.0262     0.0000     0.0000 </r>
       <r>     8.2020     0.0000     0.0000 </r>
      </set>
      <set comment="spin 4">
       <r>   -44.5411     0.0000     0.0000 </r>
       <r>   -44.3653     0.0000     0.0000 </r>
       <r>   -44.1895     0.0000     0.0000 </r>
       <r>   -44.0137     0.0000     0.0000 </r>
       <r>   -43.8379     0.0000     0.0000 </r>
       <r>   -43.6620     0.0000     0.0000 </r>
       <r>   -43.4862     0.0000     0.0000 </r>
       <r>   -43.3104     0.0000     0.0000 </r>
       <r>   -43.1346     0.0000     0.0000 </r>
       <r>   -42.9588     0.0000     0.0000 </r>
       <r>   -42.7830     0.0000     0.0000 </r>
       <r>   -42.6072     0.0000     0.0000 </r>
       <r>   -42.4314     0.0000     0.0000 </r>
       <r>   -42.2556     0.0000     0.0000 </r>
       <r>   -42.0798     0.0000     0.0000 </r>
       <r>   -41.9039     0.0000     0.0000 </r>
       <r>   -41.7281     0.0000     0.0000 </r>
       <r>   -41.5523     0.0000     0.0000 </r>
       <r>   -41.3765     0.0000     0.0000 </r>
       <r>   -41.2007     0.0000     0.0000 </r>
       <r>   -41.0249     0.0000     0.0000 </r>
       <r>   -40.8491     0.0000     0.0000 </r>
       <r>   -40.6733     0.0000     0.0000 </r>
       <r>   -40.4975     0.0000     0.0000 </r>
       <r>   -40.3216     0.0000     0.0000 </r>
       <r>   -40.1458     0.0000     0.0000 </r>
       <r>   -39.9700     0.0000     0.0000 </r>
       <r>   -39.7942     0.0000     0.0000 </r>
       <r>   -39.6184     0.0000     0.0000 </r>
       <r>   -39.4426     0.0000     0.0000 </r>
       <r>   -39.2668     0.0000     0.0000 </r>
       <r>   -39.0910     0.0000     0.0000 </r>
       <r>   -38.9152     0.0000     0.0000 </r>
       <r>   -38.7394     0.0000     0.0000 </r>
       <r>   -38.5635     0.0000     0.0000 </r>
       <r>   -38.3877     0.0000     0.0000 </r>
       <r>   -38.2119     0.0000     0.0000 </r>
       <r>   -38.0361     0.0000     0.0000 </r>
       <r>   -37.8603     0.0000     0.0000 </r>
       <r>   -37.6845     0.0000     0.0000 </r>
       <r>   -37.5087     0.0000     0.0000 </r>
       <r>   -37.3329     0.0000     0.0000 </r>
       <r>   -37.1571     0.0000     0.0000 </r>
       <r>   -36.9812     0.0000     0.0000 </r>
       <r>   -36.8054     0.0000     0.0000 </r>
       <r>   -36.6296     0.0000     0.0000 </r>
       <r>   -36.4538     0.0000     0.0000 </r>
       <r>   -36.2780     0.0000     0.0000 </r>
       <r>   -36.1022     0.0000     0.0000 </r>
       <r>   -35.9264     0.0000     0.0000 </r>
       <r>   -35.7506     0.0000     0.0000 </r>
       <r>   -35.5748     0.0000     0.0000 </r>
       <r>   -35.3990     0.0000     0.0000 </r>
       <r>   -35.2231     0.0000     0.0000 </r>
       <r>   -35.0473     0.0000     0.0000 </r>
       <r>   -34.8715     0.0000     0.0000 </r>
       <r>   -34.6957     0.0000     0.0000 </r>
       <r>   -34.5199     0.0000     0.0000 </r>
       <r>   -34.3441     0.0000     0.0000 </r>
       <r>   -34.1683     0.0000     0.0000 </r>
       <r>   -33.9925     0.0000     0.0000 </r>
       <r>   -33.8167     0.0000     0.0000 </r>
       <r>   -33.6408     0.0000     0.0000 </r>
       <r>   -33.4650     0.0000     0.0000 </r>
       <r>   -33.2892     0.0000     0.0000 </r>
       <r>   -33.1134     0.0000     0.0000 </r>
       <r>   -32.9376     0.0000     0.0000 </r>
       <r>   -32.7618     0.0000     0.0000 </r>
       <r>   -32.5860     0.0000     0.0000 </r>
       <r>   -32.4102     0.0000     0.0000 </r>
       <r>   -32.2344     0.0000     0.0000 </r>
       <r>   -32.0586     0.0000     0.0000 </r>
       <r>   -31.8827     0.0000     0.0000 </r>
       <r>   -31.7069     0.0000     0.0000 </r>
       <r>   -31.5311     0.0000     0.0000 </r>
       <r>   -31.3553     0.0000     0.0000 </r>
       <r>   -31.1795     0.0000     0.0000 </r>
       <r>   -31.0037     0.0000     0.0000 </r>
       <r>   -30.8279     0.0000     0.0000 </r>
       <r>   -30.6521     0.0000     0.0000 </r>
       <r>   -30.4763     0.0000     0.0000 </r>
       <r>   -30.3005     0.0000     0.0000 </r>
       <r>   -30.1246     0.0000     0.0000 </r>
       <r>   -29.9488     0.0000     0.0000 </r>
       <r>   -29.7730     0.0000     0.0000 </r>
       <r>   -29.5972     0.0000     0.0000 </r>
       <r>   -29.4214     0.0000     0.0000 </r>
       <r>   -29.2456     0.0000     0.0000 </r>
       <r>   -29.0698     0.0000     0.0000 </r>
       <r>   -28.8940     0.0000     0.0000 </r>
       <r>   -28.7182     0.0000     0.0000 </r>
       <r>   -28.5423     0.0000     0.0000 </r>
       <r>   -28.3665     0.0000     0.0000 </r>
       <r>   -28.1907     0.0000     0.0000 </r>
       <r>   -28.0149     0.0000     0.0000 </r>
       <r>   -27.8391     0.0000     0.0000 </r>
       <r>   -27.6633     0.0000     0.0000 </r>
       <r>   -27.4875     0.0000     0.0000 </r>
       <r>   -27.3117     0.0000     0.0000 </r>
       <r>   -27.1359     0.0000     0.0000 </r>
       <r>   -26.9601     0.0000     0.0000 </r>
       <r>   -26.7842     0.0000     0.0000 </r>
       <r>   -26.6084     0.0000     0.0000 </r>
       <r>   -26.4326     0.0000     0.0000 </r>
       <r>   -26.2568     0.0000     0.0000 </r>
       <r>   -26.0810     0.0000     0.0000 </r>
       <r>   -25.9052     0.0000     0.0000 </r>
       <r>   -25.7294     0.0000     0.0000 </r>
       <r>   -25.5536     0.0000     0.0000 </r>
       <r>   -25.3778     0.0000     0.0000 </r>
       <r>   -25.2019     0.0000     0.0000 </r>
       <r>   -25.0261     0.0000     0.0000 </r>
       <r>   -24.8503     0.0000     0.0000 </r>
       <r>   -24.6745     0.0000     0.0000 </r>
       <r>   -24.4987     0.0000     0.0000 </r>
       <r>   -24.3229     0.0000     0.0000 </r>
       <r>   -24.1471     0.0000     0.0000 </r>
       <r>   -23.9713     0.0000     0.0000 </r>
       <r>   -23.7955     0.0000     0.0000 </r>
       <r>   -23.6197     0.0000     0.0000 </r>
       <r>   -23.4438     0.0000     0.0000 </r>
       <r>   -23.2680     0.0000     0.0000 </r>
       <r>   -23.0922     0.0000     0.0000 </r>
       <r>   -22.9164     0.0000     0.0000 </r>
       <r>   -22.7406     0.0000     0.0000 </r>
       <r>   -22.5648     0.0000     0.0000 </r>
       <r>   -22.3890     0.0000     0.0000 </r>
       <r>   -22.2132     0.0000     0.0000 </r>
       <r>   -22.0374     0.0000     0.0000 </r>
       <r>   -21.8615     0.0000     0.0000 </r>
       <r>   -21.6857     0.0000     0.0000 </r>
       <r>   -21.5099     0.0000     0.0000 </r>
       <r>   -21.3341     0.0000     0.0000 </r>
       <r>   -21.1583     0.0000     0.0000 </r>
       <r>   -20.9825     0.0000     0.0000 </r>
       <r>   -20.8067     0.0000     0.0000 </r>
       <r>   -20.6309     0.0000     0.0000 </r>
       <r>   -20.4551     0.0000     0.0000 </r>
       <r>   -20.2793     0.0000     0.0000 </r>
       <r>   -20.1034     0.0000     0.0000 </r>
       <r>   -19.9276     0.0000     0.0000 </r>
       <r>   -19.7518     0.0000     0.0000 </r>
       <r>   -19.5760     0.0000     0.0000 </r>
       <r>   -19.4002     0.0000     0.0000 </r>
       <r>   -19.2244     0.0000     0.0000 </r>
       <r>   -19.0486     0.0000     0.0000 </r>
       <r>   -18.8728     0.0000     0.0000 </r>
       <r>   -18.6970     0.0000     0.0000 </r>
       <r>   -18.5212     0.0000     0.0000 </r>
       <r>   -18.3453     0.0000     0.0000 </r>
       <r>   -18.1695     0.0000     0.0000 </r>
       <r>   -17.9937     0.0000     0.0000 </r>
       <r>   -17.8179     0.0000     0.0000 </r>
       <r>   -17.6421     0.0000     0.0000 </r>
       <r>   -17.4663     0.0000     0.0000 </r>
       <r>   -17.2905     0.0000     0.0000 </r>
       <r>   -17.1147     0.0000     0.0000 </r>
       <r>   -16.9389     0.0000     0.0000 </r>
       <r>   -16.7630     0.0000     0.0000 </r>
       <r>   -16.5872     0.0000     0.0000 </r>
       <r>   -16.4114     0.0000     0.0000 </r>
       <r>   -16.2356     0.0000     0.0000 </r>
       <r>   -16.0598     0.0000     0.0000 </r>
       <r>   -15.8840     0.0000     0.0000 </r>
       <r>   -15.7082     0.0000     0.0000 </r>
       <r>   -15.5324     0.0000     0.0000 </r>
       <r>   -15.3566     0.0000     0.0000 </r>
       <r>   -15.1808     0.0000     0.0000 </r>
       <r>   -15.0049     0.0000     0.0000 </r>
       <r>   -14.8291     0.0000     0.0000 </r>
       <r>   -14.6533     0.0000     0.0000 </r>
       <r>   -14.4775     0.0000     0.0000 </r>
       <r>   -14.3017     0.0000     0.0000 </r>
       <r>   -14.1259     0.0000     0.0000 </r>
       <r>   -13.9501     0.0000     0.0000 </r>
       <r>   -13.7743     0.0000     0.0000 </r>
       <r>   -13.5985     0.0000     0.0000 </r>
       <r>   -13.4226     0.0000     0.0000 </r>
       <r>   -13.2468     0.0000     0.0000 </r>
       <r>   -13.0710     0.0000     0.0000 </r>
       <r>   -12.8952     0.0000     0.0000 </r>
       <r>   -12.7194     0.0000     0.0000 </r>
       <r>   -12.5436     0.0000     0.0000 </r>
       <r>   -12.3678     0.0000     0.0000 </r>
       <r>   -12.1920     0.0000     0.0000 </r>
       <r>   -12.0162     0.0000     0.0000 </r>
       <r>   -11.8404     0.0000     0.0000 </r>
       <r>   -11.6645     0.0000     0.0000 </r>
       <r>   -11.4887     0.0000     0.0000 </r>
       <r>   -11.3129     0.0000     0.0000 </r>
       <r>   -11.1371     0.0000     0.0000 </r>
       <r>   -10.9613     0.0000     0.0000 </r>
       <r>   -10.7855     0.0000     0.0000 </r>
       <r>   -10.6097     0.0000     0.0000 </r>
       <r>   -10.4339     0.0000     0.0000 </r>
       <r>   -10.2581     0.0000     0.0000 </r>
       <r>   -10.0822     0.0000     0.0000 </r>
       <r>    -9.9064     0.0000     0.0000 </r>
       <r>    -9.7306     0.0000     0.0000 </r>
       <r>    -9.5548     0.0000     0.0000 </r>
       <r>    -9.3790     0.0000     0.0000 </r>
       <r>    -9.2032     0.0000     0.0000 </r>
       <r>    -9.0274     0.0000     0.0000 </r>
       <r>    -8.8516     0.0000     0.0000 </r>
       <r>    -8.6758     0.0000     0.0000 </r>
       <r>    -8.5000     0.0000     0.0000 </r>
       <r>    -8.3241     0.0000     0.0000 </r>
       <r>    -8.1483     0.0000     0.0000 </r>
       <r>    -7.9725     0.0000     0.0000 </r>
       <r>    -7.7967     0.0000     0.0000 </r>
       <r>    -7.6209     0.0000     0.0000 </r>
       <r>    -7.4451     0.0000     0.0000 </r>
       <r>    -7.2693     0.0000     0.0000 </r>
       <r>    -7.0935     0.0000     0.0000 </r>
       <r>    -6.9177     0.0000     0.0000 </r>
       <r>    -6.7419     0.0000     0.0000 </r>
       <r>    -6.5660     0.0000     0.0000 </r>
       <r>    -6.3902     0.0000     0.0000 </r>
       <r>    -6.2144     0.0000     0.0000 </r>
       <r>    -6.0386     0.0000     0.0000 </r>
       <r>    -5.8628     0.0000     0.0000 </r>
       <r>    -5.6870     0.0000     0.0000 </r>
       <r>    -5.5112     0.0000     0.0000 </r>
       <r>    -5.3354     0.0000     0.0000 </r>
       <r>    -5.1596     0.0000     0.0000 </r>
       <r>    -4.9837     0.0000     0.0000 </r>
       <r>    -4.8079     0.0000     0.0000 </r>
       <r>    -4.6321     0.0000     0.0000 </r>
       <r>    -4.4563     0.0000     0.0000 </r>
       <r>    -4.2805     0.0000     0.0000 </r>
       <r>    -4.1047     0.0000     0.0000 </r>
       <r>    -3.9289     0.0000     0.0000 </r>
       <r>    -3.7531     0.0000     0.0000 </r>
       <r>    -3.5773     0.0000     0.0000 </r>
       <r>    -3.4015     0.0000     0.0000 </r>
       <r>    -3.2256     0.0000     0.0000 </r>
       <r>    -3.0498     0.0000     0.0000 </r>
       <r>    -2.8740     0.0000     0.0000 </r>
       <r>    -2.6982     0.0000     0.0000 </r>
       <r>    -2.5224     0.0000     0.0000 </r>
       <r>    -2.3466     0.0000     0.0000 </r>
       <r>    -2.1708     0.0000     0.0000 </r>
       <r>    -1.9950     0.0000     0.0000 </r>
       <r>    -1.8192     0.0000     0.0000 </r>
       <r>    -1.6433     0.0000     0.0000 </r>
       <r>    -1.4675     0.0000     0.0000 </r>
       <r>    -1.2917     0.0000     0.0000 </r>
       <r>    -1.1159     0.0000     0.0000 </r>
       <r>    -0.9401     0.0000     0.0000 </r>
       <r>    -0.7643     0.0000     0.0000 </r>
       <r>    -0.5885     0.0000     0.0000 </r>
       <r>    -0.4127     0.0000     0.0000 </r>
       <r>    -0.2369     0.0000     0.0000 </r>
       <r>    -0.0611     0.0000     0.0000 </r>
       <r>     0.1148     0.0000     0.0000 </r>
       <r>     0.2906     0.0000     0.0000 </r>
       <r>     0.4664     0.0000     0.0000 </r>
       <r>     0.6422     0.0000     0.0000 </r>
       <r>     0.8180     0.0000     0.0000 </r>
       <r>     0.9938     0.0000     0.0000 </r>
       <r>     1.1696     0.0000     0.0000 </r>
       <r>     1.3454     0.0000     0.0000 </r>
       <r>     1.5212     0.0000     0.0000 </r>
       <r>     1.6970     0.0000     0.0000 </r>
       <r>     1.8729     0.0000     0.0000 </r>
       <r>     2.0487     0.0000     0.0000 </r>
       <r>     2.2245     0.0000     0.0000 </r>
       <r>     2.4003     0.0000     0.0000 </r>
       <r>     2.5761     0.0000     0.0000 </r>
       <r>     2.7519     0.0000     0.0000 </r>
       <r>     2.9277     0.0000     0.0000 </r>
       <r>     3.1035     0.0000     0.0000 </r>
       <r>     3.2793     0.0000     0.0000 </r>
       <r>     3.4552     0.0000     0.0000 </r>
       <r>     3.6310     0.0000     0.0000 </r>
       <r>     3.8068     0.0000     0.0000 </r>
       <r>     3.9826     0.0000     0.0000 </r>
       <r>     4.1584     0.0000     0.0000 </r>
       <r>     4.3342     0.0000     0.0000 </r>
       <r>     4.5100     0.0000     0.0000 </r>
       <r>     4.6858     0.0000     0.0000 </r>
       <r>     4.8616     0.0000     0.0000 </r>
       <r>     5.0374     0.0000     0.0000 </r>
       <r>     5.2133     0.0000     0.0000 </r>
       <r>     5.3891     0.0000     0.0000 </r>
       <r>     5.5649     0.0000     0.0000 </r>
       <r>     5.7407     0.0000     0.0000 </r>
       <r>     5.9165     0.0000     0.0000 </r>
       <r>     6.0923     0.0000     0.0000 </r>
       <r>     6.2681     0.0000     0.0000 </r>
       <r>     6.4439     0.0000     0.0000 </r>
       <r>     6.6197     0.0000     0.0000 </r>
       <r>     6.7956     0.0000     0.0000 </r>
       <r>     6.9714     0.0000     0.0000 </r>
       <r>     7.1472     0.0000     0.0000 </r>
       <r>     7.3230     0.0000     0.0000 </r>
       <r>     7.4988     0.0000     0.0000 </r>
       <r>     7.6746     0.0000     0.0000 </r>
       <r>     7.8504     0.0000     0.0000 </r>
       <r>     8.0262     0.0000     0.0000 </r>
       <r>     8.2020     0.0000     0.0000 </r>
      </set>
     </set>
    </array>
   </total>
  </dos>
 </calculation>
 <structure name="finalpos" >
  <crystal>
   <varray name="basis" >
    <v>       1.59817141      -2.76811338       0.00000000 </v>
    <v>       1.59817141       2.76811338       0.00000000 </v>
    <v>       0.00000000       0.00000000      34.96267827 </v>
   </varray>
   <i name="volume">    309.34415938 </i>
   <varray name="rec_basis" >
    <v>       0.31285756      -0.18062844       0.00000000 </v>
    <v>       0.31285756       0.18062844       0.00000000 </v>
    <v>       0.00000000       0.00000000       0.02860193 </v>
   </varray>
  </crystal>
  <varray name="positions" >
   <v>       0.66666700       0.33333300       0.10664700 </v>
   <v>       0.33333300       0.66666700       0.06198962 </v>
   <v>       0.33333300       0.66666700       0.15130538 </v>
  </varray>
 </structure>
</modeling>
